<?xml version="1.0" encoding="ISO-8859-1"?>
<modeling>
 <generator>
  <i name="program" type="string">vasp </i>
  <i name="version" type="string">6.2.1  </i>
  <i name="subversion" type="string">16May21 (build Oct 27 2021 18:14:32) complex                          parallel </i>
  <i name="platform" type="string">LinuxIFC </i>
  <i name="date" type="string">2021 10 29 </i>
  <i name="time" type="string">17:21:38 </i>
 </generator>
 <incar>
  <i type="string" name="PREC">Accurate</i>
  <i type="string" name="ALGO">All</i>
  <i type="int" name="ISPIN">     1</i>
  <i type="int" name="NELM">   200</i>
  <i type="int" name="NELMIN">     5</i>
  <i type="int" name="IBRION">     2</i>
  <i name="EDIFF">      0.00001000</i>
  <i name="EDIFFG">     -0.02000000</i>
  <i type="int" name="NSW">     0</i>
  <i type="int" name="ISIF">     3</i>
  <i name="ENCUT">    680.00000000</i>
  <i name="ENAUG">   1360.00000000</i>
  <i type="int" name="NBANDS">    11</i>
  <i type="int" name="NEDOS">  5090</i>
  <i type="string" name="LREAL">Auto</i>
  <i type="int" name="ISMEAR">    -5</i>
  <i name="SIGMA">      0.05000000</i>
  <i type="logical" name="LWAVE"> F  </i>
  <i type="logical" name="LCHARG"> F  </i>
  <i type="logical" name="LVTOT"> T  </i>
  <i type="int" name="LORBIT">    11</i>
  <i type="logical" name="LELF"> T  </i>
  <i type="logical" name="LASPH"> T  </i>
  <i type="logical" name="LAECHG"> T  </i>
  <i name="HFSCREEN">      0.20000000</i>
  <i type="logical" name="LHFCALC"> T  </i>
  <i type="string" name="GGA">Pe</i>
  <i type="string" name="PRECFOCK">Fast</i>
  <i type="logical" name="LMIXTAU"> T  </i>
 </incar>
 <primitive_cell>
  <structure name="primitive_cell" >
   <crystal>
    <varray name="basis" >
     <v>       3.34889800       0.00000000       1.93348700 </v>
     <v>       1.11629900       3.15737200       1.93348700 </v>
     <v>       0.00000000       0.00000000       3.86697500 </v>
    </varray>
    <i name="volume">     40.88829843 </i>
    <varray name="rec_basis" >
     <v>       0.29860569      -0.10557300       0.00000000 </v>
     <v>       0.00000000       0.31671909       0.00000000 </v>
     <v>      -0.14930281      -0.10557302       0.25860007 </v>
    </varray>
   </crystal>
   <varray name="positions" >
    <v>       0.25000000       0.25000000       0.25000000 </v>
    <v>       0.00000000       0.00000000       0.00000000 </v>
   </varray>
  </structure>
  <varray name="primitive_index" >
   <v type="int" >        1 </v>
   <v type="int" >        2 </v>
  </varray>
 </primitive_cell>
 <kpoints>
  <generation param="Gamma">
   <v type="int" name="divisions">       6        6        6 </v>
   <v name="usershift">      0.00000000       0.00000000       0.00000000 </v>
   <v name="genvec1">      0.16666667      -0.00000000       0.00000000 </v>
   <v name="genvec2">      0.00000000       0.16666667       0.00000000 </v>
   <v name="genvec3">      0.00000000       0.00000000       0.16666667 </v>
   <v name="shift">      0.00000000       0.00000000       0.00000000 </v>
  </generation>
  <varray name="kpointlist" >
   <v>       0.00000000       0.00000000       0.00000000 </v>
   <v>       0.16666667       0.00000000       0.00000000 </v>
   <v>       0.33333333       0.00000000       0.00000000 </v>
   <v>       0.50000000       0.00000000       0.00000000 </v>
   <v>       0.16666667       0.16666667       0.00000000 </v>
   <v>       0.33333333       0.16666667       0.00000000 </v>
   <v>       0.50000000       0.16666667       0.00000000 </v>
   <v>      -0.33333333       0.16666667       0.00000000 </v>
   <v>      -0.16666667       0.16666667       0.00000000 </v>
   <v>       0.33333333       0.33333333       0.00000000 </v>
   <v>       0.50000000       0.33333333       0.00000000 </v>
   <v>      -0.33333333       0.33333333       0.00000000 </v>
   <v>       0.50000000       0.50000000       0.00000000 </v>
   <v>       0.50000000       0.33333333       0.16666667 </v>
   <v>      -0.33333333       0.33333333       0.16666667 </v>
   <v>      -0.33333333       0.50000000       0.16666667 </v>
  </varray>
  <varray name="weights" >
   <v>       0.00462963 </v>
   <v>       0.03703704 </v>
   <v>       0.03703704 </v>
   <v>       0.01851852 </v>
   <v>       0.02777778 </v>
   <v>       0.11111111 </v>
   <v>       0.11111111 </v>
   <v>       0.11111111 </v>
   <v>       0.05555556 </v>
   <v>       0.02777778 </v>
   <v>       0.11111111 </v>
   <v>       0.05555556 </v>
   <v>       0.01388889 </v>
   <v>       0.11111111 </v>
   <v>       0.11111111 </v>
   <v>       0.05555556 </v>
  </varray>
  <varray name="tetrahedronlist"  type="int" >
   <v type="int" >       24        1        2        2        5 </v>
   <v type="int" >       48        2        5        6        9 </v>
   <v type="int" >       48        2        3        6        9 </v>
   <v type="int" >       24        2        2        5        9 </v>
   <v type="int" >       48        3        6        7        8 </v>
   <v type="int" >       48        3        4        7        8 </v>
   <v type="int" >       48        3        6        8        9 </v>
   <v type="int" >       48        4        7        7        8 </v>
   <v type="int" >       24        5        6        6       10 </v>
   <v type="int" >       24        5        6        6        9 </v>
   <v type="int" >       48        6       10       11       14 </v>
   <v type="int" >       48        6        7       11       14 </v>
   <v type="int" >       48        6        7        8       14 </v>
   <v type="int" >       24        6        6       10       14 </v>
   <v type="int" >       24        6        6        9       14 </v>
   <v type="int" >       48        6        8        9       14 </v>
   <v type="int" >       48        7       11       12       15 </v>
   <v type="int" >       48        7        8       12       15 </v>
   <v type="int" >       48        7        7        8       15 </v>
   <v type="int" >       48        7       11       14       15 </v>
   <v type="int" >       48        7        8       14       15 </v>
   <v type="int" >       24        8        8       12       14 </v>
   <v type="int" >       24        8        8        9       14 </v>
   <v type="int" >       48        8       12       14       15 </v>
   <v type="int" >       24       10       11       11       13 </v>
   <v type="int" >       24       10       11       11       14 </v>
   <v type="int" >       48       11       11       13       16 </v>
   <v type="int" >       24       11       11       12       16 </v>
   <v type="int" >       48       11       12       15       16 </v>
   <v type="int" >       24       11       11       14       16 </v>
   <v type="int" >       48       11       14       15       16 </v>
   <v type="int" >       24       12       15       15       16 </v>
   <v type="int" >       24       12       14       15       15 </v>
   <v type="int" >       24       14       15       15       16 </v>
   <v type="int" >       24       15       15       16       16 </v>
  </varray>
  <i name="volumeweight">      0.00077160 </i>
 </kpoints>
 <parameters>
  <separator name="general" >
   <i type="string" name="SYSTEM">unknown system</i>
   <i type="logical" name="LCOMPAT"> F  </i>
  </separator>
  <separator name="electronic" >
   <i type="string" name="PREC">accura</i>
   <i name="ENMAX">    680.00000000</i>
   <i name="ENAUG">   1360.00000000</i>
   <i name="EDIFF">      0.00001000</i>
   <i type="int" name="IALGO">    58</i>
   <i type="int" name="IWAVPR">    10</i>
   <i type="int" name="NBANDS">    11</i>
   <i type="int" name="NBANDSLOW">    -1</i>
   <i type="int" name="NBANDSHIGH">    -1</i>
   <i name="NELECT">      8.00000000</i>
   <i type="int" name="TURBO">     0</i>
   <i type="int" name="IRESTART">     0</i>
   <i type="int" name="NREBOOT">     0</i>
   <i type="int" name="NMIN">     0</i>
   <i name="EREF">      0.00000000</i>
   <separator name="electronic smearing" >
    <i type="int" name="ISMEAR">    -5</i>
    <i name="SIGMA">      0.05000000</i>
    <i name="KSPACING">      0.50000000</i>
    <i type="logical" name="KGAMMA"> T  </i>
    <i type="logical" name="KBLOWUP"> T  </i>
   </separator>
   <separator name="electronic projectors" >
    <i type="logical" name="LREAL"> T  </i>
    <v name="ROPT">     -0.00025000</v>
    <i type="int" name="LMAXPAW">  -100</i>
    <i type="int" name="LMAXMIX">     2</i>
    <i type="logical" name="NLSPLINE"> F  </i>
   </separator>
   <separator name="electronic startup" >
    <i type="int" name="ISTART">     0</i>
    <i type="int" name="ICHARG">     2</i>
    <i type="int" name="INIWAV">     1</i>
   </separator>
   <separator name="electronic spin" >
    <i type="int" name="ISPIN">     1</i>
    <i type="logical" name="LNONCOLLINEAR"> F  </i>
    <v name="MAGMOM">      1.00000000      1.00000000</v>
    <i name="NUPDOWN">     -1.00000000</i>
    <i type="logical" name="LSORBIT"> F  </i>
    <v name="SAXIS">      0.00000000      0.00000000      1.00000000</v>
    <i type="logical" name="LSPIRAL"> F  </i>
    <v name="QSPIRAL">      0.00000000      0.00000000      0.00000000</v>
    <i type="logical" name="LZEROZ"> F  </i>
   </separator>
   <separator name="electronic exchange-correlation" >
    <i type="logical" name="LASPH"> T  </i>
    <i type="logical" name="LMETAGGA"> F  </i>
   </separator>
   <separator name="electronic convergence" >
    <i type="int" name="NELM">   200</i>
    <i type="int" name="NELMDL">    -5</i>
    <i type="int" name="NELMIN">     5</i>
    <i name="ENINI">    680.00000000</i>
    <separator name="electronic convergence detail" >
     <i type="logical" name="LDIAG"> T  </i>
     <i type="logical" name="LSUBROT"> F  </i>
     <i name="WEIMIN">      0.00000000</i>
     <i name="EBREAK">      0.00000023</i>
     <i name="DEPER">      0.30000000</i>
     <i type="int" name="NRMM">     4</i>
     <i name="TIME">      0.40000000</i>
    </separator>
   </separator>
   <separator name="electronic mixer" >
    <i name="AMIX">      0.40000000</i>
    <i name="BMIX">      1.00000000</i>
    <i name="AMIN">      0.10000000</i>
    <i name="AMIX_MAG">      1.60000000</i>
    <i name="BMIX_MAG">      1.00000000</i>
    <separator name="electronic mixer details" >
     <i type="int" name="IMIX">     4</i>
     <i type="logical" name="MIXFIRST"> F  </i>
     <i type="int" name="MAXMIX">   -45</i>
     <i name="WC">    100.00000000</i>
     <i type="int" name="INIMIX">     1</i>
     <i type="int" name="MIXPRE">     1</i>
     <i type="int" name="MREMOVE">     5</i>
    </separator>
   </separator>
   <separator name="electronic dipolcorrection" >
    <i type="logical" name="LDIPOL"> F  </i>
    <i type="logical" name="LMONO"> F  </i>
    <i type="int" name="IDIPOL">     0</i>
    <i name="EPSILON">      1.00000000</i>
    <v name="DIPOL">   -100.00000000   -100.00000000   -100.00000000</v>
    <i name="EFIELD">      0.00000000</i>
   </separator>
  </separator>
  <separator name="grids" >
   <i type="int" name="NGX">    36</i>
   <i type="int" name="NGY">    36</i>
   <i type="int" name="NGZ">    36</i>
   <i type="int" name="NGXF">    72</i>
   <i type="int" name="NGYF">    72</i>
   <i type="int" name="NGZF">    72</i>
   <i type="logical" name="ADDGRID"> F  </i>
  </separator>
  <separator name="ionic" >
   <i type="int" name="NSW">     0</i>
   <i type="int" name="IBRION">    -1</i>
   <i type="int" name="MDALGO">     0</i>
   <i type="int" name="ISIF">     3</i>
   <i name="PSTRESS">      0.00000000</i>
   <i name="EDIFFG">     -0.02000000</i>
   <i type="int" name="NFREE">     1</i>
   <i name="POTIM">      0.50000000</i>
   <i name="SMASS">     -3.00000000</i>
   <i name="SCALEE">      1.00000000</i>
  </separator>
  <separator name="ionic md" >
   <i name="TEBEG">      0.00010000</i>
   <i name="TEEND">      0.00010000</i>
   <i type="int" name="NBLOCK">     1</i>
   <i type="int" name="KBLOCK">     1</i>
   <i type="int" name="NPACO">   256</i>
   <i name="APACO">     16.00000000</i>
  </separator>
  <separator name="symmetry" >
   <i type="int" name="ISYM">     3</i>
   <i name="SYMPREC">      0.00001000</i>
  </separator>
  <separator name="dos" >
   <i type="int" name="LORBIT">    11</i>
   <v name="RWIGS">     -1.00000000</v>
   <i type="int" name="NEDOS">  5090</i>
   <i name="EMIN">     10.00000000</i>
   <i name="EMAX">    -10.00000000</i>
   <i name="EFERMI">      0.00000000</i>
  </separator>
  <separator name="writing" >
   <i type="int" name="NWRITE">     2</i>
   <i type="logical" name="LWAVE"> F  </i>
   <i type="logical" name="LDOWNSAMPLE"> F  </i>
   <i type="logical" name="LCHARG"> F  </i>
   <i type="logical" name="LPARD"> F  </i>
   <i type="logical" name="LVTOT"> T  </i>
   <i type="logical" name="LVHAR"> F  </i>
   <i type="logical" name="LELF"> T  </i>
   <i type="logical" name="LOPTICS"> F  </i>
   <v name="STM">      0.00000000      0.00000000      0.00000000      0.00000000      0.00000000      0.00000000      0.00000000</v>
  </separator>
  <separator name="performance" >
   <i type="int" name="NPAR">     1</i>
   <i type="int" name="NSIM">     4</i>
   <i type="int" name="NBLK">    -1</i>
   <i type="logical" name="LPLANE"> T  </i>
   <i type="logical" name="LSCALAPACK"> F  </i>
   <i type="logical" name="LSCAAWARE"> F  </i>
   <i type="logical" name="LSCALU"> F  </i>
   <i type="logical" name="LASYNC"> F  </i>
   <i type="logical" name="LORBITALREAL"> F  </i>
  </separator>
  <separator name="miscellaneous" >
   <i type="int" name="IDIOT">     3</i>
   <i type="int" name="PHON_NSTRUCT">    -1</i>
   <i type="logical" name="LMUSIC"> F  </i>
   <v name="POMASS">     28.08500000</v>
   <v name="DARWINR">      0.00000000</v>
   <v name="DARWINV">      1.00000000</v>
   <i type="logical" name="LCORR"> T  </i>
  </separator>
  <i type="logical" name="GGA_COMPAT"> T  </i>
  <i type="logical" name="LBERRY"> F  </i>
  <i type="int" name="ICORELEVEL">     0</i>
  <i type="logical" name="LDAU"> F  </i>
  <i type="int" name="I_CONSTRAINED_M">     0</i>
  <separator name="electronic exchange-correlation" >
   <i type="string" name="GGA">PE</i>
   <i type="int" name="VOSKOWN">     0</i>
   <i type="logical" name="LHFCALC"> T  </i>
   <i type="string" name="PRECFOCK">fast</i>
   <i type="logical" name="LSYMGRAD"> F  </i>
   <i type="logical" name="LHFONE"> F  </i>
   <i type="logical" name="LRHFCALC"> F  </i>
   <i type="logical" name="LTHOMAS"> F  </i>
   <i type="logical" name="LMODELHF"> F  </i>
   <i type="logical" name="LFOCKACE"> T  </i>
   <i name="ENCUT4O">     -1.00000000</i>
   <i type="int" name="EXXOEP">     0</i>
   <i type="int" name="FOURORBIT">     0</i>
   <i name="AEXX">      0.25000000</i>
   <i name="HFALPHA">     -1.00000000</i>
   <i name="MCALPHA">      0.00000000</i>
   <i name="ALDAX">      0.75000000</i>
   <i name="AGGAX">      0.75000000</i>
   <i name="ALDAC">      1.00000000</i>
   <i name="AGGAC">      1.00000000</i>
   <i type="int" name="NKREDX">     1</i>
   <i type="int" name="NKREDY">     1</i>
   <i type="int" name="NKREDZ">     1</i>
   <i type="logical" name="SHIFTRED"> F  </i>
   <i type="logical" name="ODDONLY"> F  </i>
   <i type="logical" name="EVENONLY"> F  </i>
   <i type="int" name="LMAXFOCK">     4</i>
   <i type="int" name="NMAXFOCKAE">     1</i>
   <i type="logical" name="LFOCKAEDFT"> F  </i>
   <i name="HFSCREEN">      0.20000000</i>
   <i name="HFSCREENC">      0.20000000</i>
   <i type="int" name="NBANDSGWLOW">     1</i>
  </separator>
  <separator name="vdW DFT" >
   <i type="logical" name="LUSE_VDW"> F  </i>
   <i name="Zab_VDW">     -0.84910000</i>
   <i name="PARAM1">      0.12340000</i>
   <i name="PARAM2">      1.00000000</i>
   <i name="PARAM3">      0.00000000</i>
  </separator>
  <separator name="model GW" >
   <i type="int" name="MODEL_GW">     0</i>
   <i name="MODEL_EPS0">     12.26648953</i>
   <i name="MODEL_ALPHA">      1.00000000</i>
  </separator>
  <separator name="linear response parameters" >
   <i type="logical" name="LEPSILON"> F  </i>
   <i type="logical" name="LRPA"> F  </i>
   <i type="logical" name="LNABLA"> F  </i>
   <i type="logical" name="LVEL"> F  </i>
   <i type="int" name="KINTER">     0</i>
   <i name="CSHIFT">      0.10000000</i>
   <i name="OMEGAMAX">     -1.00000000</i>
   <i name="DEG_THRESHOLD">      0.00200000</i>
   <i name="RTIME">     -0.10000000</i>
   <i name="WPLASMAI">      0.00000000</i>
   <v name="DFIELD">      0.00000000      0.00000000      0.00000000</v>
   <v name="WPLASMA">      0.00000000      0.00000000      0.00000000      0.00000000      0.00000000      0.00000000      0.00000000      0.00000000      0.00000000</v>
  </separator>
  <separator name="orbital magnetization" >
   <i type="logical" name="NUCIND"> F  </i>
   <v name="MAGPOS">      0.00000000      0.00000000      0.00000000</v>
   <i type="logical" name="LNICSALL"> T  </i>
   <i type="logical" name="ORBITALMAG"> F  </i>
   <i type="logical" name="LMAGBLOCH"> F  </i>
   <i type="logical" name="LCHIMAG"> F  </i>
   <i type="logical" name="LGAUGE"> T  </i>
   <i type="int" name="MAGATOM">     0</i>
   <v name="MAGDIPOL">      0.00000000      0.00000000      0.00000000</v>
   <v name="AVECCONST">      0.00000000      0.00000000      0.00000000</v>
  </separator>
  <separator name="response functions" >
   <i type="logical" name="LFINITE_TEMPERATURE"> F  </i>
   <i type="logical" name="LADDER"> F  </i>
   <i type="logical" name="LRPAFORCE"> F  </i>
   <i type="logical" name="LFXC"> F  </i>
   <i type="logical" name="LHARTREE"> T  </i>
   <i type="int" name="IBSE">     0</i>
   <v type="int" name="KPOINT">    -1     0     0     0</v>
   <i type="logical" name="LTCTC"> F  </i>
   <i type="logical" name="LTCTE"> F  </i>
   <i type="logical" name="LTETE"> F  </i>
   <i type="logical" name="LTRIPLET"> F  </i>
   <i type="logical" name="LFXCEPS"> F  </i>
   <i type="logical" name="LFXHEG"> F  </i>
   <i type="int" name="NATURALO">     2</i>
   <i type="logical" name="LHOLEGF"> F  </i>
   <i type="logical" name="L2ORDER"> F  </i>
   <i type="logical" name="LDMP1"> F  </i>
   <i type="logical" name="LMP2LT"> F  </i>
   <i type="logical" name="LSMP2LT"> F  </i>
   <i type="logical" name="LGWLF"> F  </i>
   <i name="ENCUTGW">     -2.00000000</i>
   <i name="ENCUTGWSOFT">     -2.00000000</i>
   <i name="ENCUTLF">     -1.00000000</i>
   <i type="logical" name="LESF_SPLINES"> F  </i>
   <i type="int" name="LMAXMP2">    -1</i>
   <i name="SCISSOR">      0.00000000</i>
   <i type="int" name="NOMEGA">     0</i>
   <i type="int" name="NOMEGAR">     0</i>
   <i type="int" name="NBANDSGW">    -1</i>
   <i type="int" name="NBANDSO">    -1</i>
   <i type="int" name="NBANDSV">    -1</i>
   <i type="int" name="NELM">   200</i>
   <i type="int" name="NELMHF">     1</i>
   <i type="int" name="DIM">     3</i>
   <i type="int" name="IESPILON">     4</i>
   <i type="int" name="ANTIRES">     0</i>
   <i name="OMEGAMAX">    -30.00000000</i>
   <i name="OMEGAMIN">    -30.00000000</i>
   <i name="OMEGATL">   -200.00000000</i>
   <i type="int" name="OMEGAGRID">     0</i>
   <i name="CSHIFT">     -0.10000000</i>
   <i type="logical" name="LSELFENERGY"> F  </i>
   <i type="logical" name="LSPECTRAL"> F  </i>
   <i type="logical" name="LSPECTRALGW"> F  </i>
   <i type="logical" name="LSINGLES"> F  </i>
   <i type="logical" name="LFERMIGW"> F  </i>
   <i type="logical" name="ODDONLYGW"> F  </i>
   <i type="logical" name="EVENONLYGW"> F  </i>
   <i type="int" name="NKREDLFX">     1</i>
   <i type="int" name="NKREDLFY">     1</i>
   <i type="int" name="NKREDLFZ">     1</i>
   <i type="int" name="MAXMEM">  2800</i>
   <i type="int" name="TELESCOPE">     0</i>
   <i type="int" name="NTAUPAR">    -1</i>
   <i type="int" name="NOMEGAPAR">    -1</i>
   <i name="DAMP_NEWTON">      0.80000001</i>
   <i name="LAMBDA">      1.00000000</i>
  </separator>
  <separator name="External order field" >
   <i name="OFIELD_KAPPA">      0.00000000</i>
   <v name="OFIELD_K">      0.00000000      0.00000000      0.00000000</v>
   <i name="OFIELD_Q6_NEAR">      0.00000000</i>
   <i name="OFIELD_Q6_FAR">      0.00000000</i>
   <i name="OFIELD_A">      0.00000000</i>
  </separator>
 </parameters>
 <atominfo>
  <atoms>       2 </atoms>
  <types>       1 </types>
  <array name="atoms" >
   <dimension dim="1">ion</dimension>
   <field type="string">element</field>
   <field type="int">atomtype</field>
   <set>
    <rc><c>Si</c><c>   1</c></rc>
    <rc><c>Si</c><c>   1</c></rc>
   </set>
  </array>
  <array name="atomtypes" >
   <dimension dim="1">type</dimension>
   <field type="int">atomspertype</field>
   <field type="string">element</field>
   <field>mass</field>
   <field>valence</field>
   <field type="string">pseudopotential</field>
   <set>
    <rc><c>   2</c><c>Si</c><c>     28.08500000</c><c>      4.00000000</c><c>  PAW_PBE Si 05Jan2001                  </c></rc>
   </set>
  </array>
 </atominfo>
 <structure name="initialpos" >
  <crystal>
   <varray name="basis" >
    <v>       3.34889800       0.00000000       1.93348700 </v>
    <v>       1.11629900       3.15737200       1.93348700 </v>
    <v>       0.00000000       0.00000000       3.86697500 </v>
   </varray>
   <i name="volume">     40.88829843 </i>
   <varray name="rec_basis" >
    <v>       0.29860569      -0.10557300       0.00000000 </v>
    <v>       0.00000000       0.31671909       0.00000000 </v>
    <v>      -0.14930281      -0.10557302       0.25860007 </v>
   </varray>
  </crystal>
  <varray name="positions" >
   <v>       0.25000000       0.25000000       0.25000000 </v>
   <v>       0.00000000       0.00000000       0.00000000 </v>
  </varray>
 </structure>
 <calculation>
  <scstep>
   <time name="total">    0.43    0.43</time>
   <energy>
    <i name="alphaZ">      3.29317992 </i>
    <i name="ewald">   -226.94489173 </i>
    <i name="hartreedc">    -11.32339116 </i>
    <i name="XCdc">    -18.68518031 </i>
    <i name="pawpsdc">    176.24759923 </i>
    <i name="pawaedc">   -391.62992928 </i>
    <i name="eentropy">      0.00000000 </i>
    <i name="bandstr">     17.06038730 </i>
    <i name="atom">    203.99906502 </i>
    <i name="e_fr_energy">   -247.98316102 </i>
    <i name="e_wo_entrp">   -247.98316102 </i>
    <i name="e_0_energy">   -247.98316102 </i>
   </energy>
  </scstep>
  <scstep>
   <time name="total">    0.38    0.38</time>
   <energy>
    <i name="e_fr_energy">   -266.78852488 </i>
    <i name="e_wo_entrp">   -266.78852488 </i>
    <i name="e_0_energy">   -266.78852488 </i>
   </energy>
  </scstep>
  <scstep>
   <time name="total">    0.35    0.35</time>
   <energy>
    <i name="e_fr_energy">   -267.46352053 </i>
    <i name="e_wo_entrp">   -267.46352053 </i>
    <i name="e_0_energy">   -267.46352053 </i>
   </energy>
  </scstep>
  <scstep>
   <time name="total">    0.38    0.38</time>
   <energy>
    <i name="e_fr_energy">   -267.46917223 </i>
    <i name="e_wo_entrp">   -267.46917223 </i>
    <i name="e_0_energy">   -267.46917223 </i>
   </energy>
  </scstep>
  <scstep>
   <time name="total">   20.59   20.63</time>
   <energy>
    <i name="e_fr_energy">    -12.91840758 </i>
    <i name="e_wo_entrp">    -12.91840758 </i>
    <i name="e_0_energy">    -12.91840758 </i>
   </energy>
  </scstep>
  <scstep>
   <time name="total">   40.95   41.08</time>
   <energy>
    <i name="e_fr_energy">    -12.44421669 </i>
    <i name="e_wo_entrp">    -12.44421669 </i>
    <i name="e_0_energy">    -12.44421669 </i>
   </energy>
  </scstep>
  <scstep>
   <time name="total">   49.98   50.60</time>
   <energy>
    <i name="e_fr_energy">    -12.53620310 </i>
    <i name="e_wo_entrp">    -12.53620310 </i>
    <i name="e_0_energy">    -12.53620310 </i>
   </energy>
  </scstep>
  <scstep>
   <time name="total">   54.01   55.58</time>
   <energy>
    <i name="e_fr_energy">    -12.55762612 </i>
    <i name="e_wo_entrp">    -12.55762612 </i>
    <i name="e_0_energy">    -12.55762612 </i>
   </energy>
  </scstep>
  <scstep>
   <time name="total">   44.70   44.98</time>
   <energy>
    <i name="e_fr_energy">    -12.56323119 </i>
    <i name="e_wo_entrp">    -12.56323119 </i>
    <i name="e_0_energy">    -12.56323119 </i>
   </energy>
  </scstep>
  <scstep>
   <time name="total">   45.89   46.14</time>
   <energy>
    <i name="e_fr_energy">    -12.56396518 </i>
    <i name="e_wo_entrp">    -12.56396518 </i>
    <i name="e_0_energy">    -12.56396518 </i>
   </energy>
  </scstep>
  <scstep>
   <time name="total">   50.55   52.09</time>
   <energy>
    <i name="e_fr_energy">    -12.56403599 </i>
    <i name="e_wo_entrp">    -12.56403599 </i>
    <i name="e_0_energy">    -12.56403599 </i>
   </energy>
  </scstep>
  <scstep>
   <time name="total">   52.26   55.03</time>
   <energy>
    <i name="e_fr_energy">    -12.56404739 </i>
    <i name="e_wo_entrp">    -12.56404739 </i>
    <i name="e_0_energy">    -12.56404739 </i>
   </energy>
  </scstep>
  <scstep>
   <time name="total">   70.91   72.02</time>
   <energy>
    <i name="alphaZ">      3.29317992 </i>
    <i name="ewald">   -226.94489173 </i>
    <i name="hartreedc">    -15.26607428 </i>
    <i name="XCdc">    -14.44026949 </i>
    <i name="pawpsdc">   1627.04779351 </i>
    <i name="pawaedc">  -1599.39904992 </i>
    <i name="eentropy">      0.00000000 </i>
    <i name="bandstr">     -2.08577205 </i>
    <i name="atom">    203.99906502 </i>
    <i name="e_fr_energy">    -12.56405026 </i>
    <i name="e_wo_entrp">    -12.56405026 </i>
    <i name="e_0_energy">    -12.56405026 </i>
   </energy>
  </scstep>
  <structure>
   <crystal>
    <varray name="basis" >
     <v>       3.34889800       0.00000000       1.93348700 </v>
     <v>       1.11629900       3.15737200       1.93348700 </v>
     <v>       0.00000000       0.00000000       3.86697500 </v>
    </varray>
    <i name="volume">     40.88829843 </i>
    <varray name="rec_basis" >
     <v>       0.29860569      -0.10557300       0.00000000 </v>
     <v>       0.00000000       0.31671909       0.00000000 </v>
     <v>      -0.14930281      -0.10557302       0.25860007 </v>
    </varray>
   </crystal>
   <varray name="positions" >
    <v>       0.25000000       0.25000000       0.25000000 </v>
    <v>       0.00000000       0.00000000       0.00000000 </v>
   </varray>
  </structure>
  <varray name="forces" >
   <v>       0.00000000      -0.00000000      -0.00000000 </v>
   <v>      -0.00000000       0.00000000       0.00000000 </v>
  </varray>
  <varray name="stress" >
   <v>     -18.11388774       0.00000191       0.00000270 </v>
   <v>       0.00000191     -18.11389561       0.00000191 </v>
   <v>       0.00000270       0.00000191     -18.11389408 </v>
  </varray>
  <energy>
   <i name="e_fr_energy">    -12.56405026 </i>
   <i name="e_wo_entrp">    -12.56405026 </i>
   <i name="e_0_energy">    -12.56405026 </i>
  </energy>
  <time name="totalsc">  453.59  462.62</time>
  <eigenvalues>
   <array>
    <dimension dim="1">band</dimension>
    <dimension dim="2">kpoint</dimension>
    <dimension dim="3">spin</dimension>
    <field>eigene</field>
    <field>occ</field>
    <set>
     <set comment="spin 1">
      <set comment="kpoint 1">
       <r>   -7.8848    1.0000 </r>
       <r>    5.2578    1.0000 </r>
       <r>    5.2578    1.0000 </r>
       <r>    5.2578    1.0000 </r>
       <r>    8.5896    0.0000 </r>
       <r>    8.5896    0.0000 </r>
       <r>    8.5896    0.0000 </r>
       <r>    9.3407    0.0000 </r>
       <r>   13.9834    0.0000 </r>
       <r>   14.0463    0.0000 </r>
       <r>   14.0463    0.0000 </r>
      </set>
      <set comment="kpoint 2">
       <r>   -7.4913    1.0000 </r>
       <r>    2.7164    1.0000 </r>
       <r>    4.7935    1.0000 </r>
       <r>    4.7935    1.0000 </r>
       <r>    8.3146    0.0000 </r>
       <r>    9.2656    0.0000 </r>
       <r>    9.2656    0.0000 </r>
       <r>   11.5356    0.0000 </r>
       <r>   13.3530    0.0000 </r>
       <r>   13.3530    0.0000 </r>
       <r>   15.1984    0.0000 </r>
      </set>
      <set comment="kpoint 3">
       <r>   -6.3844    1.0000 </r>
       <r>   -0.5524    1.0000 </r>
       <r>    4.1899    1.0000 </r>
       <r>    4.1899    1.0000 </r>
       <r>    7.6782    0.0000 </r>
       <r>    9.5935    0.0000 </r>
       <r>    9.5935    0.0000 </r>
       <r>   14.0604    0.0000 </r>
       <r>   14.2992    0.0000 </r>
       <r>   14.2992    0.0000 </r>
       <r>   15.2847    0.0000 </r>
      </set>
      <set comment="kpoint 4">
       <r>   -5.3481    1.0000 </r>
       <r>   -2.3559    1.0000 </r>
       <r>    3.9658    1.0000 </r>
       <r>    3.9659    1.0000 </r>
       <r>    7.4370    0.0000 </r>
       <r>    9.4214    0.0000 </r>
       <r>    9.4214    0.0000 </r>
       <r>   13.8663    0.0000 </r>
       <r>   17.0186    0.0000 </r>
       <r>   17.0602    0.0000 </r>
       <r>   17.6895    0.0000 </r>
      </set>
      <set comment="kpoint 5">
       <r>   -7.3572    1.0000 </r>
       <r>    3.0627    1.0000 </r>
       <r>    4.0133    1.0000 </r>
       <r>    4.0133    1.0000 </r>
       <r>    7.6538    0.0000 </r>
       <r>   10.3693    0.0000 </r>
       <r>   10.4518    0.0000 </r>
       <r>   10.4518    0.0000 </r>
       <r>   12.7811    0.0000 </r>
       <r>   14.6109    0.0000 </r>
       <r>   15.8815    0.0000 </r>
      </set>
      <set comment="kpoint 6">
       <r>   -6.4677    1.0000 </r>
       <r>    0.4229    1.0000 </r>
       <r>    3.1656    1.0000 </r>
       <r>    3.4013    1.0000 </r>
       <r>    7.9068    0.0000 </r>
       <r>   10.1623    0.0000 </r>
       <r>   10.6030    0.0000 </r>
       <r>   11.2406    0.0000 </r>
       <r>   15.4475    0.0000 </r>
       <r>   15.4488    0.0000 </r>
       <r>   16.6384    0.0000 </r>
      </set>
      <set comment="kpoint 7">
       <r>   -5.1699    1.0000 </r>
       <r>   -1.9673    1.0000 </r>
       <r>    2.3094    1.0000 </r>
       <r>    3.3563    1.0000 </r>
       <r>    8.0030    0.0000 </r>
       <r>   10.1672    0.0000 </r>
       <r>   10.7706    0.0000 </r>
       <r>   12.6427    0.0000 </r>
       <r>   15.6892    0.0000 </r>
       <r>   16.9219    0.0000 </r>
       <r>   18.1099    0.0000 </r>
      </set>
      <set comment="kpoint 8">
       <r>   -5.5884    1.0000 </r>
       <r>   -1.3088    1.0000 </r>
       <r>    2.0188    1.0000 </r>
       <r>    3.8710    1.0000 </r>
       <r>    8.4400    0.0000 </r>
       <r>   10.1622    0.0000 </r>
       <r>   10.3723    0.0000 </r>
       <r>   13.5283    0.0000 </r>
       <r>   13.6031    0.0000 </r>
       <r>   15.7235    0.0000 </r>
       <r>   17.7550    0.0000 </r>
      </set>
      <set comment="kpoint 9">
       <r>   -6.8498    1.0000 </r>
       <r>    1.2152    1.0000 </r>
       <r>    2.7313    1.0000 </r>
       <r>    4.6561    1.0000 </r>
       <r>    9.0761    0.0000 </r>
       <r>    9.6676    0.0000 </r>
       <r>    9.8413    0.0000 </r>
       <r>   11.8107    0.0000 </r>
       <r>   12.3045    0.0000 </r>
       <r>   15.7393    0.0000 </r>
       <r>   16.6983    0.0000 </r>
      </set>
      <set comment="kpoint 10">
       <r>   -5.8053    1.0000 </r>
       <r>   -0.2398    1.0000 </r>
       <r>    2.6641    1.0000 </r>
       <r>    2.6641    1.0000 </r>
       <r>    6.6125    0.0000 </r>
       <r>    7.9679    0.0000 </r>
       <r>   13.5669    0.0000 </r>
       <r>   13.5669    0.0000 </r>
       <r>   16.1456    0.0000 </r>
       <r>   16.2884    0.0000 </r>
       <r>   19.3614    0.0000 </r>
      </set>
      <set comment="kpoint 11">
       <r>   -4.5312    1.0000 </r>
       <r>   -1.9626    1.0000 </r>
       <r>    1.3881    1.0000 </r>
       <r>    2.5094    1.0000 </r>
       <r>    6.9757    0.0000 </r>
       <r>    8.7066    0.0000 </r>
       <r>   13.7575    0.0000 </r>
       <r>   13.7652    0.0000 </r>
       <r>   17.0426    0.0000 </r>
       <r>   17.1513    0.0000 </r>
       <r>   19.2575    0.0000 </r>
      </set>
      <set comment="kpoint 12">
       <r>   -4.3212    1.0000 </r>
       <r>   -2.1828    1.0000 </r>
       <r>    0.5433    1.0000 </r>
       <r>    2.9919    1.0000 </r>
       <r>    7.5117    0.0000 </r>
       <r>   11.9440    0.0000 </r>
       <r>   12.7712    0.0000 </r>
       <r>   13.3307    0.0000 </r>
       <r>   13.7054    0.0000 </r>
       <r>   13.9383    0.0000 </r>
       <r>   20.7047    0.0000 </r>
      </set>
      <set comment="kpoint 13">
       <r>   -3.3449    1.0000 </r>
       <r>   -3.3449    1.0000 </r>
       <r>    2.1808    1.0000 </r>
       <r>    2.1808    1.0000 </r>
       <r>    6.6057    0.0000 </r>
       <r>    6.6057    0.0000 </r>
       <r>   16.5804    0.0000 </r>
       <r>   16.5804    0.0000 </r>
       <r>   17.4361    0.0000 </r>
       <r>   17.4362    0.0000 </r>
       <r>   19.3997    0.0000 </r>
      </set>
      <set comment="kpoint 14">
       <r>   -5.3854    1.0000 </r>
       <r>   -0.9379    1.0000 </r>
       <r>    1.4608    1.0000 </r>
       <r>    2.8301    1.0000 </r>
       <r>    8.8471    0.0000 </r>
       <r>    9.7562    0.0000 </r>
       <r>   10.3361    0.0000 </r>
       <r>   13.3447    0.0000 </r>
       <r>   15.3393    0.0000 </r>
       <r>   16.2997    0.0000 </r>
       <r>   19.5145    0.0000 </r>
      </set>
      <set comment="kpoint 15">
       <r>   -4.3110    1.0000 </r>
       <r>   -2.2568    1.0000 </r>
       <r>    0.9753    1.0000 </r>
       <r>    2.3301    1.0000 </r>
       <r>    9.3673    0.0000 </r>
       <r>    9.6098    0.0000 </r>
       <r>   12.2849    0.0000 </r>
       <r>   12.7723    0.0000 </r>
       <r>   13.8571    0.0000 </r>
       <r>   17.5709    0.0000 </r>
       <r>   18.3861    0.0000 </r>
      </set>
      <set comment="kpoint 16">
       <r>   -3.2173    1.0000 </r>
       <r>   -3.2173    1.0000 </r>
       <r>    1.3751    1.0000 </r>
       <r>    1.3751    1.0000 </r>
       <r>    8.7362    0.0000 </r>
       <r>    8.7362    0.0000 </r>
       <r>   13.0125    0.0000 </r>
       <r>   13.0125    0.0000 </r>
       <r>   17.0386    0.0000 </r>
       <r>   17.0389    0.0000 </r>
       <r>   19.4261    0.0000 </r>
      </set>
     </set>
    </set>
   </array>
  </eigenvalues>
  <separator name="orbital magnetization" >
   <v name="MAGDIPOLOUT">      0.00000000      0.00000000      0.00000000</v>
  </separator>
  <dos>
   <i name="efermi">      5.25782052 </i>
   <total>
    <array>
     <dimension dim="1">gridpoints</dimension>
     <dimension dim="2">spin</dimension>
     <field>energy</field>
     <field>total</field>
     <field>integrated</field>
     <set>
      <set comment="spin 1">
       <r>    -9.3143     0.0000     0.0000 </r>
       <r>    -9.3081     0.0000     0.0000 </r>
       <r>    -9.3020     0.0000     0.0000 </r>
       <r>    -9.2958     0.0000     0.0000 </r>
       <r>    -9.2896     0.0000     0.0000 </r>
       <r>    -9.2834     0.0000     0.0000 </r>
       <r>    -9.2772     0.0000     0.0000 </r>
       <r>    -9.2711     0.0000     0.0000 </r>
       <r>    -9.2649     0.0000     0.0000 </r>
       <r>    -9.2587     0.0000     0.0000 </r>
       <r>    -9.2525     0.0000     0.0000 </r>
       <r>    -9.2463     0.0000     0.0000 </r>
       <r>    -9.2402     0.0000     0.0000 </r>
       <r>    -9.2340     0.0000     0.0000 </r>
       <r>    -9.2278     0.0000     0.0000 </r>
       <r>    -9.2216     0.0000     0.0000 </r>
       <r>    -9.2154     0.0000     0.0000 </r>
       <r>    -9.2093     0.0000     0.0000 </r>
       <r>    -9.2031     0.0000     0.0000 </r>
       <r>    -9.1969     0.0000     0.0000 </r>
       <r>    -9.1907     0.0000     0.0000 </r>
       <r>    -9.1845     0.0000     0.0000 </r>
       <r>    -9.1784     0.0000     0.0000 </r>
       <r>    -9.1722     0.0000     0.0000 </r>
       <r>    -9.1660     0.0000     0.0000 </r>
       <r>    -9.1598     0.0000     0.0000 </r>
       <r>    -9.1536     0.0000     0.0000 </r>
       <r>    -9.1475     0.0000     0.0000 </r>
       <r>    -9.1413     0.0000     0.0000 </r>
       <r>    -9.1351     0.0000     0.0000 </r>
       <r>    -9.1289     0.0000     0.0000 </r>
       <r>    -9.1228     0.0000     0.0000 </r>
       <r>    -9.1166     0.0000     0.0000 </r>
       <r>    -9.1104     0.0000     0.0000 </r>
       <r>    -9.1042     0.0000     0.0000 </r>
       <r>    -9.0980     0.0000     0.0000 </r>
       <r>    -9.0919     0.0000     0.0000 </r>
       <r>    -9.0857     0.0000     0.0000 </r>
       <r>    -9.0795     0.0000     0.0000 </r>
       <r>    -9.0733     0.0000     0.0000 </r>
       <r>    -9.0671     0.0000     0.0000 </r>
       <r>    -9.0610     0.0000     0.0000 </r>
       <r>    -9.0548     0.0000     0.0000 </r>
       <r>    -9.0486     0.0000     0.0000 </r>
       <r>    -9.0424     0.0000     0.0000 </r>
       <r>    -9.0362     0.0000     0.0000 </r>
       <r>    -9.0301     0.0000     0.0000 </r>
       <r>    -9.0239     0.0000     0.0000 </r>
       <r>    -9.0177     0.0000     0.0000 </r>
       <r>    -9.0115     0.0000     0.0000 </r>
       <r>    -9.0053     0.0000     0.0000 </r>
       <r>    -8.9992     0.0000     0.0000 </r>
       <r>    -8.9930     0.0000     0.0000 </r>
       <r>    -8.9868     0.0000     0.0000 </r>
       <r>    -8.9806     0.0000     0.0000 </r>
       <r>    -8.9744     0.0000     0.0000 </r>
       <r>    -8.9683     0.0000     0.0000 </r>
       <r>    -8.9621     0.0000     0.0000 </r>
       <r>    -8.9559     0.0000     0.0000 </r>
       <r>    -8.9497     0.0000     0.0000 </r>
       <r>    -8.9435     0.0000     0.0000 </r>
       <r>    -8.9374     0.0000     0.0000 </r>
       <r>    -8.9312     0.0000     0.0000 </r>
       <r>    -8.9250     0.0000     0.0000 </r>
       <r>    -8.9188     0.0000     0.0000 </r>
       <r>    -8.9126     0.0000     0.0000 </r>
       <r>    -8.9065     0.0000     0.0000 </r>
       <r>    -8.9003     0.0000     0.0000 </r>
       <r>    -8.8941     0.0000     0.0000 </r>
       <r>    -8.8879     0.0000     0.0000 </r>
       <r>    -8.8817     0.0000     0.0000 </r>
       <r>    -8.8756     0.0000     0.0000 </r>
       <r>    -8.8694     0.0000     0.0000 </r>
       <r>    -8.8632     0.0000     0.0000 </r>
       <r>    -8.8570     0.0000     0.0000 </r>
       <r>    -8.8508     0.0000     0.0000 </r>
       <r>    -8.8447     0.0000     0.0000 </r>
       <r>    -8.8385     0.0000     0.0000 </r>
       <r>    -8.8323     0.0000     0.0000 </r>
       <r>    -8.8261     0.0000     0.0000 </r>
       <r>    -8.8199     0.0000     0.0000 </r>
       <r>    -8.8138     0.0000     0.0000 </r>
       <r>    -8.8076     0.0000     0.0000 </r>
       <r>    -8.8014     0.0000     0.0000 </r>
       <r>    -8.7952     0.0000     0.0000 </r>
       <r>    -8.7890     0.0000     0.0000 </r>
       <r>    -8.7829     0.0000     0.0000 </r>
       <r>    -8.7767     0.0000     0.0000 </r>
       <r>    -8.7705     0.0000     0.0000 </r>
       <r>    -8.7643     0.0000     0.0000 </r>
       <r>    -8.7581     0.0000     0.0000 </r>
       <r>    -8.7520     0.0000     0.0000 </r>
       <r>    -8.7458     0.0000     0.0000 </r>
       <r>    -8.7396     0.0000     0.0000 </r>
       <r>    -8.7334     0.0000     0.0000 </r>
       <r>    -8.7273     0.0000     0.0000 </r>
       <r>    -8.7211     0.0000     0.0000 </r>
       <r>    -8.7149     0.0000     0.0000 </r>
       <r>    -8.7087     0.0000     0.0000 </r>
       <r>    -8.7025     0.0000     0.0000 </r>
       <r>    -8.6964     0.0000     0.0000 </r>
       <r>    -8.6902     0.0000     0.0000 </r>
       <r>    -8.6840     0.0000     0.0000 </r>
       <r>    -8.6778     0.0000     0.0000 </r>
       <r>    -8.6716     0.0000     0.0000 </r>
       <r>    -8.6655     0.0000     0.0000 </r>
       <r>    -8.6593     0.0000     0.0000 </r>
       <r>    -8.6531     0.0000     0.0000 </r>
       <r>    -8.6469     0.0000     0.0000 </r>
       <r>    -8.6407     0.0000     0.0000 </r>
       <r>    -8.6346     0.0000     0.0000 </r>
       <r>    -8.6284     0.0000     0.0000 </r>
       <r>    -8.6222     0.0000     0.0000 </r>
       <r>    -8.6160     0.0000     0.0000 </r>
       <r>    -8.6098     0.0000     0.0000 </r>
       <r>    -8.6037     0.0000     0.0000 </r>
       <r>    -8.5975     0.0000     0.0000 </r>
       <r>    -8.5913     0.0000     0.0000 </r>
       <r>    -8.5851     0.0000     0.0000 </r>
       <r>    -8.5789     0.0000     0.0000 </r>
       <r>    -8.5728     0.0000     0.0000 </r>
       <r>    -8.5666     0.0000     0.0000 </r>
       <r>    -8.5604     0.0000     0.0000 </r>
       <r>    -8.5542     0.0000     0.0000 </r>
       <r>    -8.5480     0.0000     0.0000 </r>
       <r>    -8.5419     0.0000     0.0000 </r>
       <r>    -8.5357     0.0000     0.0000 </r>
       <r>    -8.5295     0.0000     0.0000 </r>
       <r>    -8.5233     0.0000     0.0000 </r>
       <r>    -8.5171     0.0000     0.0000 </r>
       <r>    -8.5110     0.0000     0.0000 </r>
       <r>    -8.5048     0.0000     0.0000 </r>
       <r>    -8.4986     0.0000     0.0000 </r>
       <r>    -8.4924     0.0000     0.0000 </r>
       <r>    -8.4862     0.0000     0.0000 </r>
       <r>    -8.4801     0.0000     0.0000 </r>
       <r>    -8.4739     0.0000     0.0000 </r>
       <r>    -8.4677     0.0000     0.0000 </r>
       <r>    -8.4615     0.0000     0.0000 </r>
       <r>    -8.4553     0.0000     0.0000 </r>
       <r>    -8.4492     0.0000     0.0000 </r>
       <r>    -8.4430     0.0000     0.0000 </r>
       <r>    -8.4368     0.0000     0.0000 </r>
       <r>    -8.4306     0.0000     0.0000 </r>
       <r>    -8.4244     0.0000     0.0000 </r>
       <r>    -8.4183     0.0000     0.0000 </r>
       <r>    -8.4121     0.0000     0.0000 </r>
       <r>    -8.4059     0.0000     0.0000 </r>
       <r>    -8.3997     0.0000     0.0000 </r>
       <r>    -8.3935     0.0000     0.0000 </r>
       <r>    -8.3874     0.0000     0.0000 </r>
       <r>    -8.3812     0.0000     0.0000 </r>
       <r>    -8.3750     0.0000     0.0000 </r>
       <r>    -8.3688     0.0000     0.0000 </r>
       <r>    -8.3626     0.0000     0.0000 </r>
       <r>    -8.3565     0.0000     0.0000 </r>
       <r>    -8.3503     0.0000     0.0000 </r>
       <r>    -8.3441     0.0000     0.0000 </r>
       <r>    -8.3379     0.0000     0.0000 </r>
       <r>    -8.3317     0.0000     0.0000 </r>
       <r>    -8.3256     0.0000     0.0000 </r>
       <r>    -8.3194     0.0000     0.0000 </r>
       <r>    -8.3132     0.0000     0.0000 </r>
       <r>    -8.3070     0.0000     0.0000 </r>
       <r>    -8.3009     0.0000     0.0000 </r>
       <r>    -8.2947     0.0000     0.0000 </r>
       <r>    -8.2885     0.0000     0.0000 </r>
       <r>    -8.2823     0.0000     0.0000 </r>
       <r>    -8.2761     0.0000     0.0000 </r>
       <r>    -8.2700     0.0000     0.0000 </r>
       <r>    -8.2638     0.0000     0.0000 </r>
       <r>    -8.2576     0.0000     0.0000 </r>
       <r>    -8.2514     0.0000     0.0000 </r>
       <r>    -8.2452     0.0000     0.0000 </r>
       <r>    -8.2391     0.0000     0.0000 </r>
       <r>    -8.2329     0.0000     0.0000 </r>
       <r>    -8.2267     0.0000     0.0000 </r>
       <r>    -8.2205     0.0000     0.0000 </r>
       <r>    -8.2143     0.0000     0.0000 </r>
       <r>    -8.2082     0.0000     0.0000 </r>
       <r>    -8.2020     0.0000     0.0000 </r>
       <r>    -8.1958     0.0000     0.0000 </r>
       <r>    -8.1896     0.0000     0.0000 </r>
       <r>    -8.1834     0.0000     0.0000 </r>
       <r>    -8.1773     0.0000     0.0000 </r>
       <r>    -8.1711     0.0000     0.0000 </r>
       <r>    -8.1649     0.0000     0.0000 </r>
       <r>    -8.1587     0.0000     0.0000 </r>
       <r>    -8.1525     0.0000     0.0000 </r>
       <r>    -8.1464     0.0000     0.0000 </r>
       <r>    -8.1402     0.0000     0.0000 </r>
       <r>    -8.1340     0.0000     0.0000 </r>
       <r>    -8.1278     0.0000     0.0000 </r>
       <r>    -8.1216     0.0000     0.0000 </r>
       <r>    -8.1155     0.0000     0.0000 </r>
       <r>    -8.1093     0.0000     0.0000 </r>
       <r>    -8.1031     0.0000     0.0000 </r>
       <r>    -8.0969     0.0000     0.0000 </r>
       <r>    -8.0907     0.0000     0.0000 </r>
       <r>    -8.0846     0.0000     0.0000 </r>
       <r>    -8.0784     0.0000     0.0000 </r>
       <r>    -8.0722     0.0000     0.0000 </r>
       <r>    -8.0660     0.0000     0.0000 </r>
       <r>    -8.0598     0.0000     0.0000 </r>
       <r>    -8.0537     0.0000     0.0000 </r>
       <r>    -8.0475     0.0000     0.0000 </r>
       <r>    -8.0413     0.0000     0.0000 </r>
       <r>    -8.0351     0.0000     0.0000 </r>
       <r>    -8.0289     0.0000     0.0000 </r>
       <r>    -8.0228     0.0000     0.0000 </r>
       <r>    -8.0166     0.0000     0.0000 </r>
       <r>    -8.0104     0.0000     0.0000 </r>
       <r>    -8.0042     0.0000     0.0000 </r>
       <r>    -7.9980     0.0000     0.0000 </r>
       <r>    -7.9919     0.0000     0.0000 </r>
       <r>    -7.9857     0.0000     0.0000 </r>
       <r>    -7.9795     0.0000     0.0000 </r>
       <r>    -7.9733     0.0000     0.0000 </r>
       <r>    -7.9671     0.0000     0.0000 </r>
       <r>    -7.9610     0.0000     0.0000 </r>
       <r>    -7.9548     0.0000     0.0000 </r>
       <r>    -7.9486     0.0000     0.0000 </r>
       <r>    -7.9424     0.0000     0.0000 </r>
       <r>    -7.9362     0.0000     0.0000 </r>
       <r>    -7.9301     0.0000     0.0000 </r>
       <r>    -7.9239     0.0000     0.0000 </r>
       <r>    -7.9177     0.0000     0.0000 </r>
       <r>    -7.9115     0.0000     0.0000 </r>
       <r>    -7.9053     0.0000     0.0000 </r>
       <r>    -7.8992     0.0000     0.0000 </r>
       <r>    -7.8930     0.0000     0.0000 </r>
       <r>    -7.8868     0.0000     0.0000 </r>
       <r>    -7.8806     0.0000     0.0000 </r>
       <r>    -7.8745     0.0001     0.0000 </r>
       <r>    -7.8683     0.0004     0.0000 </r>
       <r>    -7.8621     0.0007     0.0000 </r>
       <r>    -7.8559     0.0011     0.0000 </r>
       <r>    -7.8497     0.0017     0.0000 </r>
       <r>    -7.8436     0.0023     0.0000 </r>
       <r>    -7.8374     0.0031     0.0000 </r>
       <r>    -7.8312     0.0039     0.0001 </r>
       <r>    -7.8250     0.0049     0.0001 </r>
       <r>    -7.8188     0.0059     0.0001 </r>
       <r>    -7.8127     0.0071     0.0002 </r>
       <r>    -7.8065     0.0084     0.0002 </r>
       <r>    -7.8003     0.0097     0.0003 </r>
       <r>    -7.7941     0.0112     0.0003 </r>
       <r>    -7.7879     0.0128     0.0004 </r>
       <r>    -7.7818     0.0145     0.0005 </r>
       <r>    -7.7756     0.0162     0.0006 </r>
       <r>    -7.7694     0.0181     0.0007 </r>
       <r>    -7.7632     0.0201     0.0008 </r>
       <r>    -7.7570     0.0222     0.0009 </r>
       <r>    -7.7509     0.0244     0.0011 </r>
       <r>    -7.7447     0.0267     0.0012 </r>
       <r>    -7.7385     0.0291     0.0014 </r>
       <r>    -7.7323     0.0316     0.0016 </r>
       <r>    -7.7261     0.0343     0.0018 </r>
       <r>    -7.7200     0.0370     0.0020 </r>
       <r>    -7.7138     0.0398     0.0023 </r>
       <r>    -7.7076     0.0427     0.0025 </r>
       <r>    -7.7014     0.0458     0.0028 </r>
       <r>    -7.6952     0.0489     0.0031 </r>
       <r>    -7.6891     0.0521     0.0034 </r>
       <r>    -7.6829     0.0555     0.0037 </r>
       <r>    -7.6767     0.0589     0.0041 </r>
       <r>    -7.6705     0.0625     0.0045 </r>
       <r>    -7.6643     0.0661     0.0049 </r>
       <r>    -7.6582     0.0699     0.0053 </r>
       <r>    -7.6520     0.0738     0.0057 </r>
       <r>    -7.6458     0.0777     0.0062 </r>
       <r>    -7.6396     0.0818     0.0067 </r>
       <r>    -7.6334     0.0860     0.0072 </r>
       <r>    -7.6273     0.0902     0.0077 </r>
       <r>    -7.6211     0.0946     0.0083 </r>
       <r>    -7.6149     0.0991     0.0089 </r>
       <r>    -7.6087     0.1037     0.0095 </r>
       <r>    -7.6025     0.1084     0.0102 </r>
       <r>    -7.5964     0.1132     0.0109 </r>
       <r>    -7.5902     0.1181     0.0116 </r>
       <r>    -7.5840     0.1231     0.0123 </r>
       <r>    -7.5778     0.1282     0.0131 </r>
       <r>    -7.5716     0.1334     0.0139 </r>
       <r>    -7.5655     0.1387     0.0148 </r>
       <r>    -7.5593     0.1442     0.0156 </r>
       <r>    -7.5531     0.1497     0.0166 </r>
       <r>    -7.5469     0.1553     0.0175 </r>
       <r>    -7.5407     0.1610     0.0185 </r>
       <r>    -7.5346     0.1669     0.0195 </r>
       <r>    -7.5284     0.1728     0.0205 </r>
       <r>    -7.5222     0.1789     0.0216 </r>
       <r>    -7.5160     0.1850     0.0227 </r>
       <r>    -7.5098     0.1913     0.0239 </r>
       <r>    -7.5037     0.1976     0.0251 </r>
       <r>    -7.4975     0.2041     0.0263 </r>
       <r>    -7.4913     0.2106     0.0276 </r>
       <r>    -7.4851     0.2072     0.0289 </r>
       <r>    -7.4789     0.2041     0.0302 </r>
       <r>    -7.4728     0.2012     0.0314 </r>
       <r>    -7.4666     0.1986     0.0327 </r>
       <r>    -7.4604     0.1961     0.0339 </r>
       <r>    -7.4542     0.1939     0.0351 </r>
       <r>    -7.4481     0.1919     0.0363 </r>
       <r>    -7.4419     0.1901     0.0375 </r>
       <r>    -7.4357     0.1885     0.0386 </r>
       <r>    -7.4295     0.1872     0.0398 </r>
       <r>    -7.4233     0.1861     0.0410 </r>
       <r>    -7.4172     0.1852     0.0421 </r>
       <r>    -7.4110     0.1845     0.0432 </r>
       <r>    -7.4048     0.1840     0.0444 </r>
       <r>    -7.3986     0.1838     0.0455 </r>
       <r>    -7.3924     0.1838     0.0467 </r>
       <r>    -7.3863     0.1840     0.0478 </r>
       <r>    -7.3801     0.1844     0.0489 </r>
       <r>    -7.3739     0.1850     0.0501 </r>
       <r>    -7.3677     0.1859     0.0512 </r>
       <r>    -7.3615     0.1870     0.0524 </r>
       <r>    -7.3554     0.1883     0.0535 </r>
       <r>    -7.3492     0.1896     0.0547 </r>
       <r>    -7.3430     0.1910     0.0559 </r>
       <r>    -7.3368     0.1924     0.0571 </r>
       <r>    -7.3306     0.1937     0.0583 </r>
       <r>    -7.3245     0.1951     0.0595 </r>
       <r>    -7.3183     0.1965     0.0607 </r>
       <r>    -7.3121     0.1979     0.0619 </r>
       <r>    -7.3059     0.1993     0.0631 </r>
       <r>    -7.2997     0.2006     0.0643 </r>
       <r>    -7.2936     0.2020     0.0656 </r>
       <r>    -7.2874     0.2034     0.0668 </r>
       <r>    -7.2812     0.2048     0.0681 </r>
       <r>    -7.2750     0.2062     0.0694 </r>
       <r>    -7.2688     0.2077     0.0707 </r>
       <r>    -7.2627     0.2091     0.0719 </r>
       <r>    -7.2565     0.2105     0.0732 </r>
       <r>    -7.2503     0.2119     0.0745 </r>
       <r>    -7.2441     0.2134     0.0759 </r>
       <r>    -7.2379     0.2148     0.0772 </r>
       <r>    -7.2318     0.2162     0.0785 </r>
       <r>    -7.2256     0.2177     0.0799 </r>
       <r>    -7.2194     0.2191     0.0812 </r>
       <r>    -7.2132     0.2206     0.0826 </r>
       <r>    -7.2070     0.2220     0.0839 </r>
       <r>    -7.2009     0.2235     0.0853 </r>
       <r>    -7.1947     0.2249     0.0867 </r>
       <r>    -7.1885     0.2264     0.0881 </r>
       <r>    -7.1823     0.2279     0.0895 </r>
       <r>    -7.1761     0.2294     0.0909 </r>
       <r>    -7.1700     0.2308     0.0923 </r>
       <r>    -7.1638     0.2323     0.0938 </r>
       <r>    -7.1576     0.2338     0.0952 </r>
       <r>    -7.1514     0.2353     0.0966 </r>
       <r>    -7.1452     0.2368     0.0981 </r>
       <r>    -7.1391     0.2383     0.0996 </r>
       <r>    -7.1329     0.2398     0.1010 </r>
       <r>    -7.1267     0.2413     0.1025 </r>
       <r>    -7.1205     0.2429     0.1040 </r>
       <r>    -7.1143     0.2444     0.1055 </r>
       <r>    -7.1082     0.2459     0.1071 </r>
       <r>    -7.1020     0.2474     0.1086 </r>
       <r>    -7.0958     0.2490     0.1101 </r>
       <r>    -7.0896     0.2505     0.1117 </r>
       <r>    -7.0834     0.2521     0.1132 </r>
       <r>    -7.0773     0.2536     0.1148 </r>
       <r>    -7.0711     0.2552     0.1163 </r>
       <r>    -7.0649     0.2567     0.1179 </r>
       <r>    -7.0587     0.2583     0.1195 </r>
       <r>    -7.0526     0.2598     0.1211 </r>
       <r>    -7.0464     0.2614     0.1227 </r>
       <r>    -7.0402     0.2630     0.1243 </r>
       <r>    -7.0340     0.2646     0.1260 </r>
       <r>    -7.0278     0.2661     0.1276 </r>
       <r>    -7.0217     0.2677     0.1293 </r>
       <r>    -7.0155     0.2693     0.1309 </r>
       <r>    -7.0093     0.2709     0.1326 </r>
       <r>    -7.0031     0.2725     0.1343 </r>
       <r>    -6.9969     0.2741     0.1360 </r>
       <r>    -6.9908     0.2757     0.1377 </r>
       <r>    -6.9846     0.2773     0.1394 </r>
       <r>    -6.9784     0.2790     0.1411 </r>
       <r>    -6.9722     0.2806     0.1428 </r>
       <r>    -6.9660     0.2822     0.1446 </r>
       <r>    -6.9599     0.2838     0.1463 </r>
       <r>    -6.9537     0.2855     0.1481 </r>
       <r>    -6.9475     0.2871     0.1498 </r>
       <r>    -6.9413     0.2888     0.1516 </r>
       <r>    -6.9351     0.2904     0.1534 </r>
       <r>    -6.9290     0.2921     0.1552 </r>
       <r>    -6.9228     0.2937     0.1570 </r>
       <r>    -6.9166     0.2954     0.1588 </r>
       <r>    -6.9104     0.2970     0.1607 </r>
       <r>    -6.9042     0.2987     0.1625 </r>
       <r>    -6.8981     0.3004     0.1644 </r>
       <r>    -6.8919     0.3021     0.1662 </r>
       <r>    -6.8857     0.3037     0.1681 </r>
       <r>    -6.8795     0.3054     0.1700 </r>
       <r>    -6.8733     0.3071     0.1719 </r>
       <r>    -6.8672     0.3088     0.1738 </r>
       <r>    -6.8610     0.3105     0.1757 </r>
       <r>    -6.8548     0.3122     0.1776 </r>
       <r>    -6.8486     0.3139     0.1795 </r>
       <r>    -6.8424     0.3156     0.1815 </r>
       <r>    -6.8363     0.3173     0.1834 </r>
       <r>    -6.8301     0.3190     0.1854 </r>
       <r>    -6.8239     0.3206     0.1874 </r>
       <r>    -6.8177     0.3222     0.1894 </r>
       <r>    -6.8115     0.3238     0.1914 </r>
       <r>    -6.8054     0.3254     0.1934 </r>
       <r>    -6.7992     0.3269     0.1954 </r>
       <r>    -6.7930     0.3285     0.1974 </r>
       <r>    -6.7868     0.3300     0.1994 </r>
       <r>    -6.7806     0.3315     0.2015 </r>
       <r>    -6.7745     0.3330     0.2035 </r>
       <r>    -6.7683     0.3344     0.2056 </r>
       <r>    -6.7621     0.3359     0.2077 </r>
       <r>    -6.7559     0.3373     0.2098 </r>
       <r>    -6.7497     0.3387     0.2118 </r>
       <r>    -6.7436     0.3400     0.2139 </r>
       <r>    -6.7374     0.3414     0.2160 </r>
       <r>    -6.7312     0.3427     0.2182 </r>
       <r>    -6.7250     0.3440     0.2203 </r>
       <r>    -6.7188     0.3453     0.2224 </r>
       <r>    -6.7127     0.3466     0.2246 </r>
       <r>    -6.7065     0.3479     0.2267 </r>
       <r>    -6.7003     0.3491     0.2288 </r>
       <r>    -6.6941     0.3503     0.2310 </r>
       <r>    -6.6879     0.3515     0.2332 </r>
       <r>    -6.6818     0.3527     0.2354 </r>
       <r>    -6.6756     0.3538     0.2375 </r>
       <r>    -6.6694     0.3550     0.2397 </r>
       <r>    -6.6632     0.3561     0.2419 </r>
       <r>    -6.6570     0.3572     0.2441 </r>
       <r>    -6.6509     0.3583     0.2463 </r>
       <r>    -6.6447     0.3593     0.2486 </r>
       <r>    -6.6385     0.3603     0.2508 </r>
       <r>    -6.6323     0.3614     0.2530 </r>
       <r>    -6.6262     0.3624     0.2552 </r>
       <r>    -6.6200     0.3633     0.2575 </r>
       <r>    -6.6138     0.3643     0.2597 </r>
       <r>    -6.6076     0.3652     0.2620 </r>
       <r>    -6.6014     0.3661     0.2643 </r>
       <r>    -6.5953     0.3670     0.2665 </r>
       <r>    -6.5891     0.3679     0.2688 </r>
       <r>    -6.5829     0.3687     0.2711 </r>
       <r>    -6.5767     0.3696     0.2733 </r>
       <r>    -6.5705     0.3704     0.2756 </r>
       <r>    -6.5644     0.3712     0.2779 </r>
       <r>    -6.5582     0.3720     0.2802 </r>
       <r>    -6.5520     0.3727     0.2825 </r>
       <r>    -6.5458     0.3734     0.2848 </r>
       <r>    -6.5396     0.3742     0.2871 </r>
       <r>    -6.5335     0.3749     0.2895 </r>
       <r>    -6.5273     0.3755     0.2918 </r>
       <r>    -6.5211     0.3762     0.2941 </r>
       <r>    -6.5149     0.3768     0.2964 </r>
       <r>    -6.5087     0.3774     0.2987 </r>
       <r>    -6.5026     0.3780     0.3011 </r>
       <r>    -6.4964     0.3786     0.3034 </r>
       <r>    -6.4902     0.3791     0.3058 </r>
       <r>    -6.4840     0.3797     0.3081 </r>
       <r>    -6.4778     0.3802     0.3105 </r>
       <r>    -6.4717     0.3807     0.3128 </r>
       <r>    -6.4655     0.3813     0.3152 </r>
       <r>    -6.4593     0.3821     0.3175 </r>
       <r>    -6.4531     0.3829     0.3199 </r>
       <r>    -6.4469     0.3838     0.3223 </r>
       <r>    -6.4408     0.3848     0.3246 </r>
       <r>    -6.4346     0.3858     0.3270 </r>
       <r>    -6.4284     0.3868     0.3294 </r>
       <r>    -6.4222     0.3879     0.3318 </r>
       <r>    -6.4160     0.3890     0.3342 </r>
       <r>    -6.4099     0.3902     0.3366 </r>
       <r>    -6.4037     0.3914     0.3390 </r>
       <r>    -6.3975     0.3927     0.3414 </r>
       <r>    -6.3913     0.3940     0.3439 </r>
       <r>    -6.3851     0.3953     0.3463 </r>
       <r>    -6.3790     0.3967     0.3487 </r>
       <r>    -6.3728     0.3981     0.3512 </r>
       <r>    -6.3666     0.3995     0.3537 </r>
       <r>    -6.3604     0.4009     0.3561 </r>
       <r>    -6.3542     0.4023     0.3586 </r>
       <r>    -6.3481     0.4037     0.3611 </r>
       <r>    -6.3419     0.4051     0.3636 </r>
       <r>    -6.3357     0.4065     0.3661 </r>
       <r>    -6.3295     0.4080     0.3686 </r>
       <r>    -6.3233     0.4094     0.3712 </r>
       <r>    -6.3172     0.4108     0.3737 </r>
       <r>    -6.3110     0.4123     0.3762 </r>
       <r>    -6.3048     0.4137     0.3788 </r>
       <r>    -6.2986     0.4152     0.3814 </r>
       <r>    -6.2924     0.4167     0.3839 </r>
       <r>    -6.2863     0.4181     0.3865 </r>
       <r>    -6.2801     0.4196     0.3891 </r>
       <r>    -6.2739     0.4211     0.3917 </r>
       <r>    -6.2677     0.4226     0.3943 </r>
       <r>    -6.2615     0.4241     0.3969 </r>
       <r>    -6.2554     0.4256     0.3995 </r>
       <r>    -6.2492     0.4271     0.4022 </r>
       <r>    -6.2430     0.4286     0.4048 </r>
       <r>    -6.2368     0.4301     0.4075 </r>
       <r>    -6.2306     0.4316     0.4101 </r>
       <r>    -6.2245     0.4331     0.4128 </r>
       <r>    -6.2183     0.4347     0.4155 </r>
       <r>    -6.2121     0.4362     0.4182 </r>
       <r>    -6.2059     0.4378     0.4209 </r>
       <r>    -6.1998     0.4393     0.4236 </r>
       <r>    -6.1936     0.4409     0.4263 </r>
       <r>    -6.1874     0.4424     0.4290 </r>
       <r>    -6.1812     0.4440     0.4318 </r>
       <r>    -6.1750     0.4456     0.4345 </r>
       <r>    -6.1689     0.4471     0.4373 </r>
       <r>    -6.1627     0.4487     0.4400 </r>
       <r>    -6.1565     0.4503     0.4428 </r>
       <r>    -6.1503     0.4519     0.4456 </r>
       <r>    -6.1441     0.4535     0.4484 </r>
       <r>    -6.1380     0.4551     0.4512 </r>
       <r>    -6.1318     0.4567     0.4540 </r>
       <r>    -6.1256     0.4584     0.4569 </r>
       <r>    -6.1194     0.4600     0.4597 </r>
       <r>    -6.1132     0.4616     0.4626 </r>
       <r>    -6.1071     0.4633     0.4654 </r>
       <r>    -6.1009     0.4649     0.4683 </r>
       <r>    -6.0947     0.4665     0.4712 </r>
       <r>    -6.0885     0.4682     0.4740 </r>
       <r>    -6.0823     0.4699     0.4769 </r>
       <r>    -6.0762     0.4715     0.4799 </r>
       <r>    -6.0700     0.4732     0.4828 </r>
       <r>    -6.0638     0.4749     0.4857 </r>
       <r>    -6.0576     0.4766     0.4886 </r>
       <r>    -6.0514     0.4782     0.4916 </r>
       <r>    -6.0453     0.4799     0.4945 </r>
       <r>    -6.0391     0.4816     0.4975 </r>
       <r>    -6.0329     0.4833     0.5005 </r>
       <r>    -6.0267     0.4851     0.5035 </r>
       <r>    -6.0205     0.4868     0.5065 </r>
       <r>    -6.0144     0.4885     0.5095 </r>
       <r>    -6.0082     0.4902     0.5125 </r>
       <r>    -6.0020     0.4920     0.5156 </r>
       <r>    -5.9958     0.4937     0.5186 </r>
       <r>    -5.9896     0.4955     0.5217 </r>
       <r>    -5.9835     0.4972     0.5247 </r>
       <r>    -5.9773     0.4990     0.5278 </r>
       <r>    -5.9711     0.5007     0.5309 </r>
       <r>    -5.9649     0.5025     0.5340 </r>
       <r>    -5.9587     0.5043     0.5371 </r>
       <r>    -5.9526     0.5061     0.5402 </r>
       <r>    -5.9464     0.5078     0.5434 </r>
       <r>    -5.9402     0.5096     0.5465 </r>
       <r>    -5.9340     0.5114     0.5497 </r>
       <r>    -5.9278     0.5132     0.5528 </r>
       <r>    -5.9217     0.5150     0.5560 </r>
       <r>    -5.9155     0.5169     0.5592 </r>
       <r>    -5.9093     0.5187     0.5624 </r>
       <r>    -5.9031     0.5205     0.5656 </r>
       <r>    -5.8969     0.5223     0.5688 </r>
       <r>    -5.8908     0.5242     0.5721 </r>
       <r>    -5.8846     0.5260     0.5753 </r>
       <r>    -5.8784     0.5279     0.5786 </r>
       <r>    -5.8722     0.5297     0.5818 </r>
       <r>    -5.8660     0.5316     0.5851 </r>
       <r>    -5.8599     0.5335     0.5884 </r>
       <r>    -5.8537     0.5353     0.5917 </r>
       <r>    -5.8475     0.5372     0.5950 </r>
       <r>    -5.8413     0.5391     0.5983 </r>
       <r>    -5.8351     0.5410     0.6017 </r>
       <r>    -5.8290     0.5429     0.6050 </r>
       <r>    -5.8228     0.5448     0.6084 </r>
       <r>    -5.8166     0.5467     0.6118 </r>
       <r>    -5.8104     0.5486     0.6152 </r>
       <r>    -5.8042     0.5505     0.6186 </r>
       <r>    -5.7981     0.5525     0.6220 </r>
       <r>    -5.7919     0.5544     0.6254 </r>
       <r>    -5.7857     0.5563     0.6288 </r>
       <r>    -5.7795     0.5583     0.6323 </r>
       <r>    -5.7734     0.5602     0.6357 </r>
       <r>    -5.7672     0.5622     0.6392 </r>
       <r>    -5.7610     0.5641     0.6427 </r>
       <r>    -5.7548     0.5661     0.6462 </r>
       <r>    -5.7486     0.5681     0.6497 </r>
       <r>    -5.7425     0.5701     0.6532 </r>
       <r>    -5.7363     0.5721     0.6567 </r>
       <r>    -5.7301     0.5740     0.6602 </r>
       <r>    -5.7239     0.5760     0.6638 </r>
       <r>    -5.7177     0.5780     0.6674 </r>
       <r>    -5.7116     0.5801     0.6709 </r>
       <r>    -5.7054     0.5821     0.6745 </r>
       <r>    -5.6992     0.5841     0.6781 </r>
       <r>    -5.6930     0.5861     0.6818 </r>
       <r>    -5.6868     0.5882     0.6854 </r>
       <r>    -5.6807     0.5902     0.6890 </r>
       <r>    -5.6745     0.5923     0.6927 </r>
       <r>    -5.6683     0.5943     0.6963 </r>
       <r>    -5.6621     0.5964     0.7000 </r>
       <r>    -5.6559     0.5984     0.7037 </r>
       <r>    -5.6498     0.6005     0.7074 </r>
       <r>    -5.6436     0.6026     0.7111 </r>
       <r>    -5.6374     0.6047     0.7149 </r>
       <r>    -5.6312     0.6067     0.7186 </r>
       <r>    -5.6250     0.6088     0.7224 </r>
       <r>    -5.6189     0.6109     0.7261 </r>
       <r>    -5.6127     0.6131     0.7299 </r>
       <r>    -5.6065     0.6152     0.7337 </r>
       <r>    -5.6003     0.6173     0.7375 </r>
       <r>    -5.5941     0.6194     0.7413 </r>
       <r>    -5.5880     0.6215     0.7452 </r>
       <r>    -5.5818     0.6238     0.7490 </r>
       <r>    -5.5756     0.6265     0.7529 </r>
       <r>    -5.5694     0.6295     0.7568 </r>
       <r>    -5.5632     0.6328     0.7607 </r>
       <r>    -5.5571     0.6365     0.7646 </r>
       <r>    -5.5509     0.6405     0.7685 </r>
       <r>    -5.5447     0.6449     0.7725 </r>
       <r>    -5.5385     0.6496     0.7765 </r>
       <r>    -5.5323     0.6546     0.7805 </r>
       <r>    -5.5262     0.6600     0.7846 </r>
       <r>    -5.5200     0.6657     0.7887 </r>
       <r>    -5.5138     0.6718     0.7928 </r>
       <r>    -5.5076     0.6782     0.7970 </r>
       <r>    -5.5014     0.6849     0.8012 </r>
       <r>    -5.4953     0.6920     0.8055 </r>
       <r>    -5.4891     0.6994     0.8098 </r>
       <r>    -5.4829     0.7072     0.8141 </r>
       <r>    -5.4767     0.7153     0.8185 </r>
       <r>    -5.4705     0.7238     0.8229 </r>
       <r>    -5.4644     0.7325     0.8274 </r>
       <r>    -5.4582     0.7417     0.8320 </r>
       <r>    -5.4520     0.7512     0.8366 </r>
       <r>    -5.4458     0.7610     0.8413 </r>
       <r>    -5.4396     0.7711     0.8460 </r>
       <r>    -5.4335     0.7816     0.8508 </r>
       <r>    -5.4273     0.7925     0.8557 </r>
       <r>    -5.4211     0.8037     0.8606 </r>
       <r>    -5.4149     0.8152     0.8656 </r>
       <r>    -5.4087     0.8271     0.8707 </r>
       <r>    -5.4026     0.8393     0.8758 </r>
       <r>    -5.3964     0.8518     0.8811 </r>
       <r>    -5.3902     0.8647     0.8864 </r>
       <r>    -5.3840     0.8780     0.8917 </r>
       <r>    -5.3779     0.8915     0.8972 </r>
       <r>    -5.3717     0.9053     0.9028 </r>
       <r>    -5.3655     0.9194     0.9084 </r>
       <r>    -5.3593     0.9338     0.9141 </r>
       <r>    -5.3531     0.9485     0.9199 </r>
       <r>    -5.3470     0.9634     0.9259 </r>
       <r>    -5.3408     0.9774     0.9319 </r>
       <r>    -5.3346     0.9898     0.9379 </r>
       <r>    -5.3284     1.0007     0.9441 </r>
       <r>    -5.3222     1.0100     0.9503 </r>
       <r>    -5.3161     1.0177     0.9566 </r>
       <r>    -5.3099     1.0239     0.9629 </r>
       <r>    -5.3037     1.0286     0.9692 </r>
       <r>    -5.2975     1.0316     0.9756 </r>
       <r>    -5.2913     1.0332     0.9820 </r>
       <r>    -5.2852     1.0331     0.9883 </r>
       <r>    -5.2790     1.0315     0.9947 </r>
       <r>    -5.2728     1.0284     1.0011 </r>
       <r>    -5.2666     1.0237     1.0074 </r>
       <r>    -5.2604     1.0174     1.0137 </r>
       <r>    -5.2543     1.0096     1.0200 </r>
       <r>    -5.2481     1.0003     1.0262 </r>
       <r>    -5.2419     0.9893     1.0324 </r>
       <r>    -5.2357     0.9768     1.0384 </r>
       <r>    -5.2295     0.9628     1.0444 </r>
       <r>    -5.2234     0.9472     1.0503 </r>
       <r>    -5.2172     0.9301     1.0561 </r>
       <r>    -5.2110     0.9113     1.0618 </r>
       <r>    -5.2048     0.8911     1.0674 </r>
       <r>    -5.1986     0.8692     1.0728 </r>
       <r>    -5.1925     0.8459     1.0781 </r>
       <r>    -5.1863     0.8209     1.0833 </r>
       <r>    -5.1801     0.7944     1.0883 </r>
       <r>    -5.1739     0.7664     1.0931 </r>
       <r>    -5.1677     0.7470     1.0978 </r>
       <r>    -5.1616     0.7463     1.1024 </r>
       <r>    -5.1554     0.7457     1.1070 </r>
       <r>    -5.1492     0.7450     1.1116 </r>
       <r>    -5.1430     0.7443     1.1162 </r>
       <r>    -5.1368     0.7436     1.1208 </r>
       <r>    -5.1307     0.7430     1.1254 </r>
       <r>    -5.1245     0.7423     1.1300 </r>
       <r>    -5.1183     0.7416     1.1346 </r>
       <r>    -5.1121     0.7410     1.1391 </r>
       <r>    -5.1059     0.7403     1.1437 </r>
       <r>    -5.0998     0.7396     1.1483 </r>
       <r>    -5.0936     0.7389     1.1529 </r>
       <r>    -5.0874     0.7383     1.1574 </r>
       <r>    -5.0812     0.7376     1.1620 </r>
       <r>    -5.0750     0.7369     1.1665 </r>
       <r>    -5.0689     0.7362     1.1711 </r>
       <r>    -5.0627     0.7356     1.1756 </r>
       <r>    -5.0565     0.7349     1.1802 </r>
       <r>    -5.0503     0.7342     1.1847 </r>
       <r>    -5.0441     0.7335     1.1893 </r>
       <r>    -5.0380     0.7328     1.1938 </r>
       <r>    -5.0318     0.7321     1.1983 </r>
       <r>    -5.0256     0.7315     1.2028 </r>
       <r>    -5.0194     0.7308     1.2074 </r>
       <r>    -5.0132     0.7301     1.2119 </r>
       <r>    -5.0071     0.7294     1.2164 </r>
       <r>    -5.0009     0.7287     1.2209 </r>
       <r>    -4.9947     0.7280     1.2254 </r>
       <r>    -4.9885     0.7273     1.2299 </r>
       <r>    -4.9823     0.7267     1.2344 </r>
       <r>    -4.9762     0.7260     1.2389 </r>
       <r>    -4.9700     0.7253     1.2433 </r>
       <r>    -4.9638     0.7246     1.2478 </r>
       <r>    -4.9576     0.7239     1.2523 </r>
       <r>    -4.9515     0.7232     1.2568 </r>
       <r>    -4.9453     0.7225     1.2612 </r>
       <r>    -4.9391     0.7218     1.2657 </r>
       <r>    -4.9329     0.7211     1.2702 </r>
       <r>    -4.9267     0.7204     1.2746 </r>
       <r>    -4.9206     0.7197     1.2791 </r>
       <r>    -4.9144     0.7190     1.2835 </r>
       <r>    -4.9082     0.7183     1.2879 </r>
       <r>    -4.9020     0.7176     1.2924 </r>
       <r>    -4.8958     0.7169     1.2968 </r>
       <r>    -4.8897     0.7162     1.3012 </r>
       <r>    -4.8835     0.7155     1.3057 </r>
       <r>    -4.8773     0.7148     1.3101 </r>
       <r>    -4.8711     0.7141     1.3145 </r>
       <r>    -4.8649     0.7134     1.3189 </r>
       <r>    -4.8588     0.7127     1.3233 </r>
       <r>    -4.8526     0.7120     1.3277 </r>
       <r>    -4.8464     0.7113     1.3321 </r>
       <r>    -4.8402     0.7106     1.3365 </r>
       <r>    -4.8340     0.7099     1.3409 </r>
       <r>    -4.8279     0.7092     1.3453 </r>
       <r>    -4.8217     0.7085     1.3497 </r>
       <r>    -4.8155     0.7077     1.3540 </r>
       <r>    -4.8093     0.7070     1.3584 </r>
       <r>    -4.8031     0.7063     1.3628 </r>
       <r>    -4.7970     0.7056     1.3671 </r>
       <r>    -4.7908     0.7049     1.3715 </r>
       <r>    -4.7846     0.7042     1.3759 </r>
       <r>    -4.7784     0.7035     1.3802 </r>
       <r>    -4.7722     0.7027     1.3846 </r>
       <r>    -4.7661     0.7020     1.3889 </r>
       <r>    -4.7599     0.7013     1.3932 </r>
       <r>    -4.7537     0.7006     1.3976 </r>
       <r>    -4.7475     0.6999     1.4019 </r>
       <r>    -4.7413     0.6992     1.4062 </r>
       <r>    -4.7352     0.6984     1.4105 </r>
       <r>    -4.7290     0.6977     1.4148 </r>
       <r>    -4.7228     0.6970     1.4192 </r>
       <r>    -4.7166     0.6963     1.4235 </r>
       <r>    -4.7104     0.6955     1.4278 </r>
       <r>    -4.7043     0.6948     1.4321 </r>
       <r>    -4.6981     0.6941     1.4363 </r>
       <r>    -4.6919     0.6934     1.4406 </r>
       <r>    -4.6857     0.6926     1.4449 </r>
       <r>    -4.6795     0.6919     1.4492 </r>
       <r>    -4.6734     0.6912     1.4535 </r>
       <r>    -4.6672     0.6905     1.4577 </r>
       <r>    -4.6610     0.6897     1.4620 </r>
       <r>    -4.6548     0.6890     1.4663 </r>
       <r>    -4.6486     0.6883     1.4705 </r>
       <r>    -4.6425     0.6875     1.4748 </r>
       <r>    -4.6363     0.6868     1.4790 </r>
       <r>    -4.6301     0.6861     1.4833 </r>
       <r>    -4.6239     0.6853     1.4875 </r>
       <r>    -4.6177     0.6846     1.4917 </r>
       <r>    -4.6116     0.6839     1.4960 </r>
       <r>    -4.6054     0.6831     1.5002 </r>
       <r>    -4.5992     0.6824     1.5044 </r>
       <r>    -4.5930     0.6816     1.5086 </r>
       <r>    -4.5868     0.6809     1.5128 </r>
       <r>    -4.5807     0.6802     1.5170 </r>
       <r>    -4.5745     0.6794     1.5212 </r>
       <r>    -4.5683     0.6787     1.5254 </r>
       <r>    -4.5621     0.6779     1.5296 </r>
       <r>    -4.5559     0.6772     1.5338 </r>
       <r>    -4.5498     0.6764     1.5380 </r>
       <r>    -4.5436     0.6757     1.5422 </r>
       <r>    -4.5374     0.6750     1.5463 </r>
       <r>    -4.5312     0.6742     1.5505 </r>
       <r>    -4.5251     0.6791     1.5547 </r>
       <r>    -4.5189     0.6836     1.5589 </r>
       <r>    -4.5127     0.6876     1.5631 </r>
       <r>    -4.5065     0.6913     1.5674 </r>
       <r>    -4.5003     0.6945     1.5717 </r>
       <r>    -4.4942     0.6973     1.5760 </r>
       <r>    -4.4880     0.6997     1.5803 </r>
       <r>    -4.4818     0.7016     1.5846 </r>
       <r>    -4.4756     0.7032     1.5890 </r>
       <r>    -4.4694     0.7043     1.5933 </r>
       <r>    -4.4633     0.7050     1.5977 </r>
       <r>    -4.4571     0.7052     1.6020 </r>
       <r>    -4.4509     0.7051     1.6064 </r>
       <r>    -4.4447     0.7045     1.6107 </r>
       <r>    -4.4385     0.7035     1.6151 </r>
       <r>    -4.4324     0.7021     1.6194 </r>
       <r>    -4.4262     0.7002     1.6238 </r>
       <r>    -4.4200     0.6980     1.6281 </r>
       <r>    -4.4138     0.6953     1.6324 </r>
       <r>    -4.4076     0.6921     1.6367 </r>
       <r>    -4.4015     0.6886     1.6409 </r>
       <r>    -4.3953     0.6847     1.6452 </r>
       <r>    -4.3891     0.6803     1.6494 </r>
       <r>    -4.3829     0.6755     1.6536 </r>
       <r>    -4.3767     0.6702     1.6578 </r>
       <r>    -4.3706     0.6646     1.6619 </r>
       <r>    -4.3644     0.6585     1.6660 </r>
       <r>    -4.3582     0.6520     1.6700 </r>
       <r>    -4.3520     0.6451     1.6740 </r>
       <r>    -4.3458     0.6378     1.6780 </r>
       <r>    -4.3397     0.6300     1.6819 </r>
       <r>    -4.3335     0.6218     1.6858 </r>
       <r>    -4.3273     0.6132     1.6896 </r>
       <r>    -4.3211     0.6042     1.6934 </r>
       <r>    -4.3149     0.5959     1.6971 </r>
       <r>    -4.3088     0.5903     1.7007 </r>
       <r>    -4.3026     0.5864     1.7044 </r>
       <r>    -4.2964     0.5826     1.7080 </r>
       <r>    -4.2902     0.5787     1.7116 </r>
       <r>    -4.2840     0.5749     1.7151 </r>
       <r>    -4.2779     0.5711     1.7187 </r>
       <r>    -4.2717     0.5672     1.7222 </r>
       <r>    -4.2655     0.5634     1.7257 </r>
       <r>    -4.2593     0.5596     1.7291 </r>
       <r>    -4.2531     0.5558     1.7326 </r>
       <r>    -4.2470     0.5519     1.7360 </r>
       <r>    -4.2408     0.5481     1.7394 </r>
       <r>    -4.2346     0.5443     1.7428 </r>
       <r>    -4.2284     0.5405     1.7461 </r>
       <r>    -4.2222     0.5367     1.7495 </r>
       <r>    -4.2161     0.5329     1.7528 </r>
       <r>    -4.2099     0.5292     1.7561 </r>
       <r>    -4.2037     0.5254     1.7593 </r>
       <r>    -4.1975     0.5216     1.7626 </r>
       <r>    -4.1913     0.5178     1.7658 </r>
       <r>    -4.1852     0.5141     1.7690 </r>
       <r>    -4.1790     0.5103     1.7721 </r>
       <r>    -4.1728     0.5065     1.7753 </r>
       <r>    -4.1666     0.5028     1.7784 </r>
       <r>    -4.1604     0.4990     1.7815 </r>
       <r>    -4.1543     0.4953     1.7845 </r>
       <r>    -4.1481     0.4915     1.7876 </r>
       <r>    -4.1419     0.4878     1.7906 </r>
       <r>    -4.1357     0.4841     1.7936 </r>
       <r>    -4.1296     0.4803     1.7966 </r>
       <r>    -4.1234     0.4766     1.7996 </r>
       <r>    -4.1172     0.4729     1.8025 </r>
       <r>    -4.1110     0.4692     1.8054 </r>
       <r>    -4.1048     0.4655     1.8083 </r>
       <r>    -4.0987     0.4618     1.8112 </r>
       <r>    -4.0925     0.4581     1.8140 </r>
       <r>    -4.0863     0.4544     1.8168 </r>
       <r>    -4.0801     0.4507     1.8196 </r>
       <r>    -4.0739     0.4470     1.8224 </r>
       <r>    -4.0678     0.4433     1.8251 </r>
       <r>    -4.0616     0.4396     1.8279 </r>
       <r>    -4.0554     0.4360     1.8306 </r>
       <r>    -4.0492     0.4323     1.8333 </r>
       <r>    -4.0430     0.4286     1.8359 </r>
       <r>    -4.0369     0.4250     1.8386 </r>
       <r>    -4.0307     0.4213     1.8412 </r>
       <r>    -4.0245     0.4177     1.8438 </r>
       <r>    -4.0183     0.4140     1.8463 </r>
       <r>    -4.0121     0.4104     1.8489 </r>
       <r>    -4.0060     0.4068     1.8514 </r>
       <r>    -3.9998     0.4031     1.8539 </r>
       <r>    -3.9936     0.3995     1.8564 </r>
       <r>    -3.9874     0.3959     1.8588 </r>
       <r>    -3.9812     0.3923     1.8613 </r>
       <r>    -3.9751     0.3887     1.8637 </r>
       <r>    -3.9689     0.3850     1.8661 </r>
       <r>    -3.9627     0.3814     1.8685 </r>
       <r>    -3.9565     0.3778     1.8708 </r>
       <r>    -3.9503     0.3743     1.8731 </r>
       <r>    -3.9442     0.3707     1.8754 </r>
       <r>    -3.9380     0.3671     1.8777 </r>
       <r>    -3.9318     0.3635     1.8800 </r>
       <r>    -3.9256     0.3599     1.8822 </r>
       <r>    -3.9194     0.3564     1.8844 </r>
       <r>    -3.9133     0.3528     1.8866 </r>
       <r>    -3.9071     0.3492     1.8888 </r>
       <r>    -3.9009     0.3457     1.8909 </r>
       <r>    -3.8947     0.3421     1.8930 </r>
       <r>    -3.8885     0.3386     1.8951 </r>
       <r>    -3.8824     0.3350     1.8972 </r>
       <r>    -3.8762     0.3315     1.8993 </r>
       <r>    -3.8700     0.3279     1.9013 </r>
       <r>    -3.8638     0.3244     1.9033 </r>
       <r>    -3.8576     0.3209     1.9053 </r>
       <r>    -3.8515     0.3174     1.9073 </r>
       <r>    -3.8453     0.3139     1.9093 </r>
       <r>    -3.8391     0.3103     1.9112 </r>
       <r>    -3.8329     0.3068     1.9131 </r>
       <r>    -3.8267     0.3033     1.9150 </r>
       <r>    -3.8206     0.2998     1.9168 </r>
       <r>    -3.8144     0.2963     1.9187 </r>
       <r>    -3.8082     0.2928     1.9205 </r>
       <r>    -3.8020     0.2894     1.9223 </r>
       <r>    -3.7958     0.2859     1.9241 </r>
       <r>    -3.7897     0.2824     1.9258 </r>
       <r>    -3.7835     0.2789     1.9276 </r>
       <r>    -3.7773     0.2755     1.9293 </r>
       <r>    -3.7711     0.2720     1.9310 </r>
       <r>    -3.7649     0.2686     1.9326 </r>
       <r>    -3.7588     0.2651     1.9343 </r>
       <r>    -3.7526     0.2617     1.9359 </r>
       <r>    -3.7464     0.2582     1.9375 </r>
       <r>    -3.7402     0.2548     1.9391 </r>
       <r>    -3.7340     0.2513     1.9407 </r>
       <r>    -3.7279     0.2479     1.9422 </r>
       <r>    -3.7217     0.2445     1.9437 </r>
       <r>    -3.7155     0.2411     1.9452 </r>
       <r>    -3.7093     0.2376     1.9467 </r>
       <r>    -3.7032     0.2342     1.9482 </r>
       <r>    -3.6970     0.2308     1.9496 </r>
       <r>    -3.6908     0.2274     1.9510 </r>
       <r>    -3.6846     0.2240     1.9524 </r>
       <r>    -3.6784     0.2206     1.9538 </r>
       <r>    -3.6723     0.2172     1.9552 </r>
       <r>    -3.6661     0.2139     1.9565 </r>
       <r>    -3.6599     0.2105     1.9578 </r>
       <r>    -3.6537     0.2071     1.9591 </r>
       <r>    -3.6475     0.2037     1.9604 </r>
       <r>    -3.6414     0.2004     1.9616 </r>
       <r>    -3.6352     0.1970     1.9628 </r>
       <r>    -3.6290     0.1937     1.9640 </r>
       <r>    -3.6228     0.1903     1.9652 </r>
       <r>    -3.6166     0.1870     1.9664 </r>
       <r>    -3.6105     0.1836     1.9675 </r>
[...]
        <r>  0.0000  0.0000  0.2190  0.0000  0.0000  0.0000  0.0000  0.0000  0.0000 </r>
       </set>
       <set comment="band 5">
        <r>  0.0983  0.0303  0.0000  0.0601  0.0000  0.0000  0.0000  0.0000  0.0000 </r>
        <r>  0.0983  0.0303  0.0000  0.0601  0.0000  0.0000  0.0000  0.0000  0.0000 </r>
       </set>
       <set comment="band 6">
        <r>  0.0000  0.0000  0.1482  0.0000  0.0000  0.0000  0.0000  0.0000  0.0000 </r>
        <r>  0.0000  0.0000  0.1482  0.0000  0.0000  0.0000  0.0000  0.0000  0.0000 </r>
       </set>
       <set comment="band 7">
        <r>  0.0322  0.0453  0.0000  0.0700  0.0000  0.0000  0.0000  0.0000  0.0000 </r>
        <r>  0.0322  0.0453  0.0000  0.0700  0.0000  0.0000  0.0000  0.0000  0.0000 </r>
       </set>
       <set comment="band 8">
        <r>  0.0737  0.0611  0.0000  0.0310  0.0000  0.0000  0.0000  0.0000  0.0000 </r>
        <r>  0.0737  0.0611  0.0000  0.0310  0.0000  0.0000  0.0000  0.0000  0.0000 </r>
       </set>
       <set comment="band 9">
        <r>  0.0000  0.0000  0.0006  0.0000  0.0000  0.0000  0.0000  0.0000  0.0000 </r>
        <r>  0.0000  0.0000  0.0006  0.0000  0.0000  0.0000  0.0000  0.0000  0.0000 </r>
       </set>
       <set comment="band 10">
        <r>  0.0634  0.0480  0.0000  0.0357  0.0000  0.0000  0.0000  0.0000  0.0000 </r>
        <r>  0.0635  0.0481  0.0000  0.0357  0.0000  0.0000  0.0000  0.0000  0.0000 </r>
       </set>
       <set comment="band 11">
        <r>  0.0274  0.0574  0.0000  0.0422  0.0000  0.0000  0.0000  0.0000  0.0000 </r>
        <r>  0.0285  0.0568  0.0000  0.0418  0.0000  0.0000  0.0000  0.0000  0.0000 </r>
       </set>
      </set>
      <set comment="kpoint 10">
       <set comment="band 1">
        <r>  0.2082  0.0069  0.0000  0.0138  0.0000  0.0000  0.0000  0.0000  0.0000 </r>
        <r>  0.2082  0.0069  0.0000  0.0138  0.0000  0.0000  0.0000  0.0000  0.0000 </r>
       </set>
       <set comment="band 2">
        <r>  0.1750  0.0266  0.0000  0.0531  0.0000  0.0000  0.0000  0.0000  0.0000 </r>
        <r>  0.1750  0.0266  0.0000  0.0531  0.0000  0.0000  0.0000  0.0000  0.0000 </r>
       </set>
       <set comment="band 3">
        <r>  0.0000  0.1235  0.0117  0.0617  0.0000  0.0000  0.0000  0.0000  0.0000 </r>
        <r>  0.0000  0.1235  0.0117  0.0617  0.0000  0.0000  0.0000  0.0000  0.0000 </r>
       </set>
       <set comment="band 4">
        <r>  0.0000  0.0078  0.1852  0.0039  0.0000  0.0000  0.0000  0.0000  0.0000 </r>
        <r>  0.0000  0.0078  0.1852  0.0039  0.0000  0.0000  0.0000  0.0000  0.0000 </r>
       </set>
       <set comment="band 5">
        <r>  0.0511  0.0187  0.0000  0.0375  0.0000  0.0000  0.0000  0.0000  0.0000 </r>
        <r>  0.0511  0.0187  0.0000  0.0375  0.0000  0.0000  0.0000  0.0000  0.0000 </r>
       </set>
       <set comment="band 6">
        <r>  0.0446  0.0100  0.0000  0.0200  0.0000  0.0000  0.0000  0.0000  0.0000 </r>
        <r>  0.0446  0.0100  0.0000  0.0200  0.0000  0.0000  0.0000  0.0000  0.0000 </r>
       </set>
       <set comment="band 7">
        <r>  0.0000  0.0174  0.1375  0.0087  0.0000  0.0000  0.0000  0.0000  0.0000 </r>
        <r>  0.0000  0.0174  0.1375  0.0087  0.0000  0.0000  0.0000  0.0000  0.0000 </r>
       </set>
       <set comment="band 8">
        <r>  0.0000  0.0917  0.0261  0.0458  0.0000  0.0000  0.0000  0.0000  0.0000 </r>
        <r>  0.0000  0.0916  0.0261  0.0458  0.0000  0.0000  0.0000  0.0000  0.0000 </r>
       </set>
       <set comment="band 9">
        <r>  0.1395  0.0457  0.0000  0.0915  0.0000  0.0000  0.0000  0.0000  0.0000 </r>
        <r>  0.1395  0.0458  0.0000  0.0915  0.0000  0.0000  0.0000  0.0000  0.0000 </r>
       </set>
       <set comment="band 10">
        <r>  0.0000  0.0000  0.0000  0.0000  0.0000  0.0000  0.0000  0.0000  0.0000 </r>
        <r>  0.0000  0.0000  0.0000  0.0000  0.0000  0.0000  0.0000  0.0000  0.0000 </r>
       </set>
       <set comment="band 11">
        <r>  0.0069  0.0552  0.0003  0.1059  0.0000  0.0000  0.0000  0.0000  0.0000 </r>
        <r>  0.0069  0.0576  0.0003  0.1036  0.0000  0.0000  0.0000  0.0000  0.0000 </r>
       </set>
      </set>
      <set comment="kpoint 11">
       <set comment="band 1">
        <r>  0.2070  0.0076  0.0000  0.0236  0.0000  0.0000  0.0000  0.0000  0.0000 </r>
        <r>  0.2070  0.0076  0.0000  0.0236  0.0000  0.0000  0.0000  0.0000  0.0000 </r>
       </set>
       <set comment="band 2">
        <r>  0.1872  0.0141  0.0000  0.0470  0.0000  0.0000  0.0000  0.0000  0.0000 </r>
        <r>  0.1872  0.0141  0.0000  0.0470  0.0000  0.0000  0.0000  0.0000  0.0000 </r>
       </set>
       <set comment="band 3">
        <r>  0.0050  0.1156  0.0000  0.0506  0.0000  0.0000  0.0000  0.0000  0.0000 </r>
        <r>  0.0050  0.1156  0.0000  0.0506  0.0000  0.0000  0.0000  0.0000  0.0000 </r>
       </set>
       <set comment="band 4">
        <r>  0.0000  0.0000  0.1981  0.0000  0.0000  0.0000  0.0000  0.0000  0.0000 </r>
        <r>  0.0000  0.0000  0.1981  0.0000  0.0000  0.0000  0.0000  0.0000  0.0000 </r>
       </set>
       <set comment="band 5">
        <r>  0.0507  0.0258  0.0000  0.0168  0.0000  0.0000  0.0000  0.0000  0.0000 </r>
        <r>  0.0507  0.0258  0.0000  0.0168  0.0000  0.0000  0.0000  0.0000  0.0000 </r>
       </set>
       <set comment="band 6">
        <r>  0.0348  0.0343  0.0000  0.0330  0.0000  0.0000  0.0000  0.0000  0.0000 </r>
        <r>  0.0348  0.0343  0.0000  0.0330  0.0000  0.0000  0.0000  0.0000  0.0000 </r>
       </set>
       <set comment="band 7">
        <r>  0.0437  0.1334  0.0000  0.0049  0.0000  0.0000  0.0000  0.0000  0.0000 </r>
        <r>  0.0437  0.1334  0.0000  0.0049  0.0000  0.0000  0.0000  0.0000  0.0000 </r>
       </set>
       <set comment="band 8">
        <r>  0.0000  0.0000  0.1231  0.0000  0.0000  0.0000  0.0000  0.0000  0.0000 </r>
        <r>  0.0000  0.0000  0.1231  0.0000  0.0000  0.0000  0.0000  0.0000  0.0000 </r>
       </set>
       <set comment="band 9">
        <r>  0.0151  0.0122  0.0000  0.1391  0.0000  0.0000  0.0000  0.0000  0.0000 </r>
        <r>  0.0152  0.0123  0.0000  0.1386  0.0000  0.0000  0.0000  0.0000  0.0000 </r>
       </set>
       <set comment="band 10">
        <r>  0.0000  0.0000  0.0584  0.0000  0.0000  0.0000  0.0000  0.0000  0.0000 </r>
        <r>  0.0000  0.0000  0.0584  0.0000  0.0000  0.0000  0.0000  0.0000  0.0000 </r>
       </set>
       <set comment="band 11">
        <r>  0.0477  0.0208  0.0073  0.1381  0.0000  0.0000  0.0000  0.0000  0.0000 </r>
        <r>  0.0478  0.0208  0.0073  0.1377  0.0000  0.0000  0.0000  0.0000  0.0000 </r>
       </set>
      </set>
      <set comment="kpoint 12">
       <set comment="band 1">
        <r>  0.2175  0.0146  0.0000  0.0135  0.0000  0.0000  0.0000  0.0000  0.0000 </r>
        <r>  0.2175  0.0146  0.0000  0.0135  0.0000  0.0000  0.0000  0.0000  0.0000 </r>
       </set>
       <set comment="band 2">
        <r>  0.1783  0.0279  0.0000  0.0353  0.0000  0.0000  0.0000  0.0000  0.0000 </r>
        <r>  0.1783  0.0279  0.0000  0.0353  0.0000  0.0000  0.0000  0.0000  0.0000 </r>
       </set>
       <set comment="band 3">
        <r>  0.0034  0.0825  0.0000  0.0713  0.0000  0.0000  0.0000  0.0000  0.0000 </r>
        <r>  0.0034  0.0825  0.0000  0.0713  0.0000  0.0000  0.0000  0.0000  0.0000 </r>
       </set>
       <set comment="band 4">
        <r>  0.0000  0.0000  0.2027  0.0000  0.0000  0.0000  0.0000  0.0000  0.0000 </r>
        <r>  0.0000  0.0000  0.2027  0.0000  0.0000  0.0000  0.0000  0.0000  0.0000 </r>
       </set>
       <set comment="band 5">
        <r>  0.0544  0.0158  0.0000  0.0289  0.0000  0.0000  0.0000  0.0000  0.0000 </r>
        <r>  0.0544  0.0158  0.0000  0.0289  0.0000  0.0000  0.0000  0.0000  0.0000 </r>
       </set>
       <set comment="band 6">
        <r>  0.0048  0.0471  0.0000  0.0236  0.0000  0.0000  0.0000  0.0000  0.0000 </r>
        <r>  0.0048  0.0471  0.0000  0.0236  0.0000  0.0000  0.0000  0.0000  0.0000 </r>
       </set>
       <set comment="band 7">
        <r>  0.0000  0.0000  0.1509  0.0000  0.0000  0.0000  0.0000  0.0000  0.0000 </r>
        <r>  0.0000  0.0000  0.1509  0.0000  0.0000  0.0000  0.0000  0.0000  0.0000 </r>
       </set>
       <set comment="band 8">
        <r>  0.0489  0.0484  0.0000  0.0859  0.0000  0.0000  0.0000  0.0000  0.0000 </r>
        <r>  0.0489  0.0484  0.0000  0.0859  0.0000  0.0000  0.0000  0.0000  0.0000 </r>
       </set>
       <set comment="band 9">
        <r>  0.0663  0.0915  0.0000  0.0643  0.0000  0.0000  0.0000  0.0000  0.0000 </r>
        <r>  0.0663  0.0915  0.0000  0.0643  0.0000  0.0000  0.0000  0.0000  0.0000 </r>
       </set>
       <set comment="band 10">
        <r>  0.0000  0.0000  0.0124  0.0000  0.0000  0.0000  0.0000  0.0000  0.0000 </r>
        <r>  0.0000  0.0000  0.0124  0.0000  0.0000  0.0000  0.0000  0.0000  0.0000 </r>
       </set>
       <set comment="band 11">
        <r>  0.0093  0.0320  0.0000  0.0274  0.0000  0.0000  0.0000  0.0000  0.0000 </r>
        <r>  0.0139  0.0358  0.0000  0.0243  0.0000  0.0000  0.0000  0.0000  0.0000 </r>
       </set>
      </set>
      <set comment="kpoint 13">
       <set comment="band 1">
        <r>  0.0496  0.0264  0.0000  0.0529  0.0000  0.0000  0.0000  0.0000  0.0000 </r>
        <r>  0.3435  0.0038  0.0000  0.0076  0.0000  0.0000  0.0000  0.0000  0.0000 </r>
       </set>
       <set comment="band 2">
        <r>  0.3435  0.0038  0.0000  0.0076  0.0000  0.0000  0.0000  0.0000  0.0000 </r>
        <r>  0.0496  0.0264  0.0000  0.0529  0.0000  0.0000  0.0000  0.0000  0.0000 </r>
       </set>
       <set comment="band 3">
        <r>  0.0000  0.1214  0.0144  0.0607  0.0000  0.0000  0.0000  0.0000  0.0000 </r>
        <r>  0.0000  0.1214  0.0144  0.0607  0.0000  0.0000  0.0000  0.0000  0.0000 </r>
       </set>
       <set comment="band 4">
        <r>  0.0000  0.0096  0.1820  0.0048  0.0000  0.0000  0.0000  0.0000  0.0000 </r>
        <r>  0.0000  0.0096  0.1820  0.0048  0.0000  0.0000  0.0000  0.0000  0.0000 </r>
       </set>
       <set comment="band 5">
        <r>  0.0043  0.0218  0.0000  0.0437  0.0000  0.0000  0.0000  0.0000  0.0000 </r>
        <r>  0.0997  0.0010  0.0000  0.0019  0.0000  0.0000  0.0000  0.0000  0.0000 </r>
       </set>
       <set comment="band 6">
        <r>  0.0997  0.0010  0.0000  0.0019  0.0000  0.0000  0.0000  0.0000  0.0000 </r>
        <r>  0.0043  0.0218  0.0000  0.0437  0.0000  0.0000  0.0000  0.0000  0.0000 </r>
       </set>
       <set comment="band 7">
        <r>  0.0000  0.0425  0.1757  0.0212  0.0000  0.0000  0.0000  0.0000  0.0000 </r>
        <r>  0.0000  0.0425  0.1757  0.0212  0.0000  0.0000  0.0000  0.0000  0.0000 </r>
       </set>
       <set comment="band 8">
        <r>  0.0000  0.1171  0.0637  0.0586  0.0000  0.0000  0.0000  0.0000  0.0000 </r>
        <r>  0.0000  0.1171  0.0637  0.0586  0.0000  0.0000  0.0000  0.0000  0.0000 </r>
       </set>
       <set comment="band 9">
        <r>  0.0000  0.0085  0.0005  0.0031  0.0000  0.0000  0.0000  0.0000  0.0000 </r>
        <r>  0.0000  0.0076  0.0005  0.0039  0.0000  0.0000  0.0000  0.0000  0.0000 </r>
       </set>
       <set comment="band 10">
        <r>  0.0000  0.0004  0.0115  0.0001  0.0000  0.0000  0.0000  0.0000  0.0000 </r>
        <r>  0.0000  0.0003  0.0115  0.0002  0.0000  0.0000  0.0000  0.0000  0.0000 </r>
       </set>
       <set comment="band 11">
        <r>  0.1001  0.0074  0.0000  0.0148  0.0000  0.0000  0.0000  0.0000  0.0000 </r>
        <r>  0.0063  0.1179  0.0000  0.2358  0.0000  0.0000  0.0000  0.0000  0.0000 </r>
       </set>
      </set>
      <set comment="kpoint 14">
       <set comment="band 1">
        <r>  0.2110  0.0028  0.0024  0.0173  0.0000  0.0000  0.0000  0.0000  0.0000 </r>
        <r>  0.2110  0.0028  0.0024  0.0173  0.0000  0.0000  0.0000  0.0000  0.0000 </r>
       </set>
       <set comment="band 2">
        <r>  0.1709  0.0130  0.0178  0.0460  0.0000  0.0000  0.0000  0.0000  0.0000 </r>
        <r>  0.1709  0.0130  0.0178  0.0460  0.0000  0.0000  0.0000  0.0000  0.0000 </r>
       </set>
       <set comment="band 3">
        <r>  0.0104  0.0314  0.0703  0.0604  0.0000  0.0000  0.0000  0.0000  0.0000 </r>
        <r>  0.0104  0.0314  0.0703  0.0604  0.0000  0.0000  0.0000  0.0000  0.0000 </r>
       </set>
       <set comment="band 4">
        <r>  0.0041  0.1113  0.0656  0.0097  0.0000  0.0000  0.0000  0.0000  0.0000 </r>
        <r>  0.0041  0.1113  0.0656  0.0097  0.0000  0.0000  0.0000  0.0000  0.0000 </r>
       </set>
       <set comment="band 5">
        <r>  0.0305  0.0550  0.0287  0.0130  0.0000  0.0000  0.0000  0.0000  0.0000 </r>
        <r>  0.0305  0.0550  0.0287  0.0130  0.0000  0.0000  0.0000  0.0000  0.0000 </r>
       </set>
       <set comment="band 6">
        <r>  0.0183  0.0045  0.0225  0.0284  0.0000  0.0000  0.0000  0.0000  0.0000 </r>
        <r>  0.0183  0.0045  0.0225  0.0284  0.0000  0.0000  0.0000  0.0000  0.0000 </r>
       </set>
       <set comment="band 7">
        <r>  0.0686  0.0481  0.0384  0.0127  0.0000  0.0000  0.0000  0.0000  0.0000 </r>
        <r>  0.0686  0.0481  0.0384  0.0127  0.0000  0.0000  0.0000  0.0000  0.0000 </r>
       </set>
       <set comment="band 8">
        <r>  0.0054  0.0678  0.0641  0.0134  0.0000  0.0000  0.0000  0.0000  0.0000 </r>
        <r>  0.0054  0.0678  0.0641  0.0134  0.0000  0.0000  0.0000  0.0000  0.0000 </r>
       </set>
       <set comment="band 9">
        <r>  0.0404  0.0094  0.0058  0.0512  0.0000  0.0000  0.0000  0.0000  0.0000 </r>
        <r>  0.0404  0.0094  0.0058  0.0512  0.0000  0.0000  0.0000  0.0000  0.0000 </r>
       </set>
       <set comment="band 10">
        <r>  0.0059  0.0102  0.0367  0.0860  0.0000  0.0000  0.0000  0.0000  0.0000 </r>
        <r>  0.0059  0.0102  0.0367  0.0860  0.0000  0.0000  0.0000  0.0000  0.0000 </r>
       </set>
       <set comment="band 11">
        <r>  0.0449  0.0103  0.0396  0.0858  0.0000  0.0000  0.0000  0.0000  0.0000 </r>
        <r>  0.0470  0.0125  0.0362  0.0888  0.0000  0.0000  0.0000  0.0000  0.0000 </r>
       </set>
      </set>
      <set comment="kpoint 15">
       <set comment="band 1">
        <r>  0.2188  0.0093  0.0038  0.0144  0.0000  0.0000  0.0000  0.0000  0.0000 </r>
        <r>  0.2188  0.0093  0.0038  0.0144  0.0000  0.0000  0.0000  0.0000  0.0000 </r>
       </set>
       <set comment="band 2">
        <r>  0.1689  0.0102  0.0039  0.0525  0.0000  0.0000  0.0000  0.0000  0.0000 </r>
        <r>  0.1689  0.0102  0.0039  0.0525  0.0000  0.0000  0.0000  0.0000  0.0000 </r>
       </set>
       <set comment="band 3">
        <r>  0.0177  0.0740  0.0292  0.0499  0.0000  0.0000  0.0000  0.0000  0.0000 </r>
        <r>  0.0177  0.0740  0.0292  0.0499  0.0000  0.0000  0.0000  0.0000  0.0000 </r>
       </set>
       <set comment="band 4">
        <r>  0.0011  0.0499  0.1210  0.0100  0.0000  0.0000  0.0000  0.0000  0.0000 </r>
        <r>  0.0011  0.0499  0.1210  0.0100  0.0000  0.0000  0.0000  0.0000  0.0000 </r>
       </set>
       <set comment="band 5">
        <r>  0.0081  0.0313  0.0451  0.0032  0.0000  0.0000  0.0000  0.0000  0.0000 </r>
        <r>  0.0081  0.0313  0.0451  0.0032  0.0000  0.0000  0.0000  0.0000  0.0000 </r>
       </set>
       <set comment="band 6">
        <r>  0.0640  0.0272  0.0447  0.0120  0.0000  0.0000  0.0000  0.0000  0.0000 </r>
        <r>  0.0640  0.0272  0.0447  0.0120  0.0000  0.0000  0.0000  0.0000  0.0000 </r>
       </set>
       <set comment="band 7">
        <r>  0.0192  0.0216  0.0109  0.0475  0.0000  0.0000  0.0000  0.0000  0.0000 </r>
        <r>  0.0192  0.0216  0.0109  0.0475  0.0000  0.0000  0.0000  0.0000  0.0000 </r>
       </set>
       <set comment="band 8">
        <r>  0.0350  0.0471  0.0170  0.0553  0.0000  0.0000  0.0000  0.0000  0.0000 </r>
        <r>  0.0350  0.0471  0.0170  0.0553  0.0000  0.0000  0.0000  0.0000  0.0000 </r>
       </set>
       <set comment="band 9">
        <r>  0.0188  0.0661  0.0567  0.0066  0.0000  0.0000  0.0000  0.0000  0.0000 </r>
        <r>  0.0188  0.0661  0.0567  0.0066  0.0000  0.0000  0.0000  0.0000  0.0000 </r>
       </set>
       <set comment="band 10">
        <r>  0.0052  0.0066  0.0008  0.0766  0.0000  0.0000  0.0000  0.0000  0.0000 </r>
        <r>  0.0052  0.0066  0.0008  0.0767  0.0000  0.0000  0.0000  0.0000  0.0000 </r>
       </set>
       <set comment="band 11">
        <r>  0.0193  0.0055  0.0542  0.0596  0.0000  0.0000  0.0000  0.0000  0.0000 </r>
        <r>  0.0201  0.0058  0.0545  0.0586  0.0000  0.0000  0.0000  0.0000  0.0000 </r>
       </set>
      </set>
      <set comment="kpoint 16">
       <set comment="band 1">
        <r>  0.1960  0.0157  0.0048  0.0246  0.0000  0.0000  0.0000  0.0000  0.0000 </r>
        <r>  0.2122  0.0146  0.0044  0.0227  0.0000  0.0000  0.0000  0.0000  0.0000 </r>
       </set>
       <set comment="band 2">
        <r>  0.2122  0.0132  0.0043  0.0241  0.0000  0.0000  0.0000  0.0000  0.0000 </r>
        <r>  0.1960  0.0144  0.0047  0.0261  0.0000  0.0000  0.0000  0.0000  0.0000 </r>
       </set>
       <set comment="band 3">
        <r>  0.0009  0.0343  0.0650  0.0747  0.0000  0.0000  0.0000  0.0000  0.0000 </r>
        <r>  0.0020  0.0302  0.0682  0.0634  0.0000  0.0000  0.0000  0.0000  0.0000 </r>
       </set>
       <set comment="band 4">
        <r>  0.0020  0.0777  0.0778  0.0064  0.0000  0.0000  0.0000  0.0000  0.0000 </r>
        <r>  0.0009  0.0817  0.0747  0.0176  0.0000  0.0000  0.0000  0.0000  0.0000 </r>
       </set>
       <set comment="band 5">
        <r>  0.0171  0.0111  0.0186  0.0441  0.0000  0.0000  0.0000  0.0000  0.0000 </r>
        <r>  0.0509  0.0100  0.0273  0.0333  0.0000  0.0000  0.0000  0.0000  0.0000 </r>
       </set>
       <set comment="band 6">
        <r>  0.0509  0.0371  0.0329  0.0007  0.0000  0.0000  0.0000  0.0000  0.0000 </r>
        <r>  0.0172  0.0381  0.0241  0.0116  0.0000  0.0000  0.0000  0.0000  0.0000 </r>
       </set>
       <set comment="band 7">
        <r>  0.0056  0.0455  0.0441  0.0338  0.0000  0.0000  0.0000  0.0000  0.0000 </r>
        <r>  0.0535  0.0364  0.0573  0.0024  0.0000  0.0000  0.0000  0.0000  0.0000 </r>
       </set>
       <set comment="band 8">
        <r>  0.0535  0.0277  0.0325  0.0359  0.0000  0.0000  0.0000  0.0000  0.0000 </r>
        <r>  0.0056  0.0368  0.0193  0.0673  0.0000  0.0000  0.0000  0.0000  0.0000 </r>
       </set>
       <set comment="band 9">
        <r>  0.0003  0.0087  0.0522  0.0291  0.0000  0.0000  0.0000  0.0000  0.0000 </r>
        <r>  0.0000  0.0373  0.0746  0.0637  0.0000  0.0000  0.0000  0.0000  0.0000 </r>
       </set>
       <set comment="band 10">
        <r>  0.0000  0.0806  0.0520  0.0430  0.0000  0.0000  0.0000  0.0000  0.0000 </r>
        <r>  0.0003  0.0512  0.0301  0.0086  0.0000  0.0000  0.0000  0.0000  0.0000 </r>
       </set>
       <set comment="band 11">
        <r>  0.0323  0.0262  0.0100  0.0432  0.0000  0.0000  0.0000  0.0000  0.0000 </r>
        <r>  0.0205  0.0414  0.0157  0.0678  0.0000  0.0000  0.0000  0.0000  0.0000 </r>
       </set>
      </set>
     </set>
    </set>
   </array>
  </projected>
 </calculation>
 <structure name="finalpos" >
  <crystal>
   <varray name="basis" >
    <v>       3.34889800       0.00000000       1.93348700 </v>
    <v>       1.11629900       3.15737200       1.93348700 </v>
    <v>       0.00000000       0.00000000       3.86697500 </v>
   </varray>
   <i name="volume">     40.88829843 </i>
   <varray name="rec_basis" >
    <v>       0.29860569      -0.10557300       0.00000000 </v>
    <v>       0.00000000       0.31671909       0.00000000 </v>
    <v>      -0.14930281      -0.10557302       0.25860007 </v>
   </varray>
  </crystal>
  <varray name="positions" >
   <v>       0.25000000       0.25000000       0.25000000 </v>
   <v>       0.00000000       0.00000000       0.00000000 </v>
  </varray>
 </structure>
</modeling>
