  22  22   1   0
  0.2187403E+02  0.8747875E-09  0.8747875E-09  0.6288491E-09  0.5000000E-15
   1.0000000000000000E-004
  CAR
 unknown system
      8.23352907    -27.40539116  301      3.56114682      1.00000000
    -27.405  0.0000E+00  0.0000E+00  0.0000E+00  0.0000E+00
    -27.287  0.0000E+00  0.0000E+00  0.0000E+00  0.0000E+00
    -27.168  0.0000E+00  0.0000E+00  0.0000E+00  0.0000E+00
    -27.049  0.0000E+00  0.0000E+00  0.0000E+00  0.0000E+00
    -26.930  0.0000E+00  0.0000E+00  0.0000E+00  0.0000E+00
    -26.811  0.0000E+00  0.0000E+00  0.0000E+00  0.0000E+00
    -26.693  0.0000E+00  0.0000E+00  0.0000E+00  0.0000E+00
    -26.574  0.0000E+00  0.0000E+00  0.0000E+00  0.0000E+00
    -26.455  0.0000E+00  0.0000E+00  0.0000E+00  0.0000E+00
    -26.336  0.0000E+00  0.0000E+00  0.0000E+00  0.0000E+00
    -26.217  0.0000E+00  0.0000E+00  0.0000E+00  0.0000E+00
    -26.099  0.0000E+00  0.0000E+00  0.0000E+00  0.0000E+00
    -25.980  0.0000E+00  0.0000E+00  0.0000E+00  0.0000E+00
    -25.861  0.0000E+00  0.0000E+00  0.0000E+00  0.0000E+00
    -25.742  0.0000E+00  0.0000E+00  0.0000E+00  0.0000E+00
    -25.623  0.0000E+00  0.0000E+00  0.0000E+00  0.0000E+00
    -25.505  0.0000E+00  0.0000E+00  0.0000E+00  0.0000E+00
    -25.386  0.4462E+01  0.4462E+01  0.4127E-01  0.4127E-01
    -25.267  0.3275E+02  0.3275E+02  0.1761E+01  0.1761E+01
    -25.148  0.5104E+02  0.5104E+02  0.8000E+01  0.8000E+01
    -25.029  0.0000E+00  0.0000E+00  0.8000E+01  0.8000E+01
    -24.911  0.0000E+00  0.0000E+00  0.8000E+01  0.8000E+01
    -24.792  0.0000E+00  0.0000E+00  0.8000E+01  0.8000E+01
    -24.673  0.0000E+00  0.0000E+00  0.8000E+01  0.8000E+01
    -24.554  0.0000E+00  0.0000E+00  0.8000E+01  0.8000E+01
    -24.435  0.0000E+00  0.0000E+00  0.8000E+01  0.8000E+01
    -24.317  0.0000E+00  0.0000E+00  0.8000E+01  0.8000E+01
    -24.198  0.0000E+00  0.0000E+00  0.8000E+01  0.8000E+01
    -24.079  0.0000E+00  0.0000E+00  0.8000E+01  0.8000E+01
    -23.960  0.0000E+00  0.0000E+00  0.8000E+01  0.8000E+01
    -23.841  0.0000E+00  0.0000E+00  0.8000E+01  0.8000E+01
    -23.723  0.0000E+00  0.0000E+00  0.8000E+01  0.8000E+01
    -23.604  0.0000E+00  0.0000E+00  0.8000E+01  0.8000E+01
    -23.485  0.0000E+00  0.0000E+00  0.8000E+01  0.8000E+01
    -23.366  0.0000E+00  0.0000E+00  0.8000E+01  0.8000E+01
    -23.248  0.0000E+00  0.0000E+00  0.8000E+01  0.8000E+01
    -23.129  0.0000E+00  0.0000E+00  0.8000E+01  0.8000E+01
    -23.010  0.0000E+00  0.0000E+00  0.8000E+01  0.8000E+01
    -22.891  0.0000E+00  0.0000E+00  0.8000E+01  0.8000E+01
    -22.772  0.0000E+00  0.0000E+00  0.8000E+01  0.8000E+01
    -22.654  0.0000E+00  0.0000E+00  0.8000E+01  0.8000E+01
    -22.535  0.0000E+00  0.0000E+00  0.8000E+01  0.8000E+01
    -22.416  0.0000E+00  0.0000E+00  0.8000E+01  0.8000E+01
    -22.297  0.0000E+00  0.0000E+00  0.8000E+01  0.8000E+01
    -22.178  0.0000E+00  0.0000E+00  0.8000E+01  0.8000E+01
    -22.060  0.0000E+00  0.0000E+00  0.8000E+01  0.8000E+01
    -21.941  0.0000E+00  0.0000E+00  0.8000E+01  0.8000E+01
    -21.822  0.0000E+00  0.0000E+00  0.8000E+01  0.8000E+01
    -21.703  0.0000E+00  0.0000E+00  0.8000E+01  0.8000E+01
    -21.584  0.0000E+00  0.0000E+00  0.8000E+01  0.8000E+01
    -21.466  0.3367E+02  0.3367E+02  0.1200E+02  0.1200E+02
    -21.347  0.5611E+02  0.5611E+02  0.1476E+02  0.1476E+02
    -21.228  0.4080E+02  0.4080E+02  0.2000E+02  0.2000E+02
    -21.109  0.0000E+00  0.0000E+00  0.2000E+02  0.2000E+02
    -20.990  0.0000E+00  0.0000E+00  0.2000E+02  0.2000E+02
    -20.872  0.0000E+00  0.0000E+00  0.2000E+02  0.2000E+02
    -20.753  0.0000E+00  0.0000E+00  0.2000E+02  0.2000E+02
    -20.634  0.0000E+00  0.0000E+00  0.2000E+02  0.2000E+02
    -20.515  0.0000E+00  0.0000E+00  0.2000E+02  0.2000E+02
    -20.396  0.0000E+00  0.0000E+00  0.2000E+02  0.2000E+02
    -20.278  0.0000E+00  0.0000E+00  0.2000E+02  0.2000E+02
    -20.159  0.0000E+00  0.0000E+00  0.2000E+02  0.2000E+02
    -20.040  0.0000E+00  0.0000E+00  0.2000E+02  0.2000E+02
    -19.921  0.0000E+00  0.0000E+00  0.2000E+02  0.2000E+02
    -19.802  0.0000E+00  0.0000E+00  0.2000E+02  0.2000E+02
    -19.684  0.0000E+00  0.0000E+00  0.2000E+02  0.2000E+02
    -19.565  0.0000E+00  0.0000E+00  0.2000E+02  0.2000E+02
    -19.446  0.0000E+00  0.0000E+00  0.2000E+02  0.2000E+02
    -19.327  0.0000E+00  0.0000E+00  0.2000E+02  0.2000E+02
    -19.208  0.0000E+00  0.0000E+00  0.2000E+02  0.2000E+02
    -19.090  0.0000E+00  0.0000E+00  0.2000E+02  0.2000E+02
    -18.971  0.0000E+00  0.0000E+00  0.2000E+02  0.2000E+02
    -18.852  0.0000E+00  0.0000E+00  0.2000E+02  0.2000E+02
    -18.733  0.0000E+00  0.0000E+00  0.2000E+02  0.2000E+02
    -18.614  0.0000E+00  0.0000E+00  0.2000E+02  0.2000E+02
    -18.496  0.0000E+00  0.0000E+00  0.2000E+02  0.2000E+02
    -18.377  0.0000E+00  0.0000E+00  0.2000E+02  0.2000E+02
    -18.258  0.0000E+00  0.0000E+00  0.2000E+02  0.2000E+02
    -18.139  0.0000E+00  0.0000E+00  0.2000E+02  0.2000E+02
    -18.020  0.0000E+00  0.0000E+00  0.2000E+02  0.2000E+02
    -17.902  0.0000E+00  0.0000E+00  0.2000E+02  0.2000E+02
    -17.783  0.0000E+00  0.0000E+00  0.2000E+02  0.2000E+02
    -17.664  0.0000E+00  0.0000E+00  0.2000E+02  0.2000E+02
    -17.545  0.0000E+00  0.0000E+00  0.2000E+02  0.2000E+02
    -17.426  0.0000E+00  0.0000E+00  0.2000E+02  0.2000E+02
    -17.308  0.0000E+00  0.0000E+00  0.2000E+02  0.2000E+02
    -17.189  0.0000E+00  0.0000E+00  0.2000E+02  0.2000E+02
    -17.070  0.0000E+00  0.0000E+00  0.2000E+02  0.2000E+02
    -16.951  0.0000E+00  0.0000E+00  0.2000E+02  0.2000E+02
    -16.833  0.0000E+00  0.0000E+00  0.2000E+02  0.2000E+02
    -16.714  0.0000E+00  0.0000E+00  0.2000E+02  0.2000E+02
    -16.595  0.0000E+00  0.0000E+00  0.2000E+02  0.2000E+02
    -16.476  0.0000E+00  0.0000E+00  0.2000E+02  0.2000E+02
    -16.357  0.0000E+00  0.0000E+00  0.2000E+02  0.2000E+02
    -16.239  0.0000E+00  0.0000E+00  0.2000E+02  0.2000E+02
    -16.120  0.0000E+00  0.0000E+00  0.2000E+02  0.2000E+02
    -16.001  0.0000E+00  0.0000E+00  0.2000E+02  0.2000E+02
    -15.882  0.0000E+00  0.0000E+00  0.2000E+02  0.2000E+02
    -15.763  0.0000E+00  0.0000E+00  0.2000E+02  0.2000E+02
    -15.645  0.0000E+00  0.0000E+00  0.2000E+02  0.2000E+02
    -15.526  0.0000E+00  0.0000E+00  0.2000E+02  0.2000E+02
    -15.407  0.0000E+00  0.0000E+00  0.2000E+02  0.2000E+02
    -15.288  0.0000E+00  0.0000E+00  0.2000E+02  0.2000E+02
    -15.169  0.0000E+00  0.0000E+00  0.2000E+02  0.2000E+02
    -15.051  0.0000E+00  0.0000E+00  0.2000E+02  0.2000E+02
    -14.932  0.0000E+00  0.0000E+00  0.2000E+02  0.2000E+02
    -14.813  0.0000E+00  0.0000E+00  0.2000E+02  0.2000E+02
    -14.694  0.1684E+02  0.1684E+02  0.2200E+02  0.2200E+02
    -14.575  0.0000E+00  0.0000E+00  0.2200E+02  0.2200E+02
    -14.457  0.0000E+00  0.0000E+00  0.2200E+02  0.2200E+02
    -14.338  0.0000E+00  0.0000E+00  0.2200E+02  0.2200E+02
    -14.219  0.0000E+00  0.0000E+00  0.2200E+02  0.2200E+02
    -14.100  0.0000E+00  0.0000E+00  0.2200E+02  0.2200E+02
    -13.981  0.0000E+00  0.0000E+00  0.2200E+02  0.2200E+02
    -13.863  0.0000E+00  0.0000E+00  0.2200E+02  0.2200E+02
    -13.744  0.0000E+00  0.0000E+00  0.2200E+02  0.2200E+02
    -13.625  0.0000E+00  0.0000E+00  0.2200E+02  0.2200E+02
    -13.506  0.0000E+00  0.0000E+00  0.2200E+02  0.2200E+02
    -13.387  0.0000E+00  0.0000E+00  0.2200E+02  0.2200E+02
    -13.269  0.0000E+00  0.0000E+00  0.2200E+02  0.2200E+02
    -13.150  0.0000E+00  0.0000E+00  0.2200E+02  0.2200E+02
    -13.031  0.0000E+00  0.0000E+00  0.2200E+02  0.2200E+02
    -12.912  0.0000E+00  0.0000E+00  0.2200E+02  0.2200E+02
    -12.793  0.0000E+00  0.0000E+00  0.2200E+02  0.2200E+02
    -12.675  0.0000E+00  0.0000E+00  0.2200E+02  0.2200E+02
    -12.556  0.0000E+00  0.0000E+00  0.2200E+02  0.2200E+02
    -12.437  0.0000E+00  0.0000E+00  0.2200E+02  0.2200E+02
    -12.318  0.0000E+00  0.0000E+00  0.2200E+02  0.2200E+02
    -12.199  0.0000E+00  0.0000E+00  0.2200E+02  0.2200E+02
    -12.081  0.0000E+00  0.0000E+00  0.2200E+02  0.2200E+02
    -11.962  0.0000E+00  0.0000E+00  0.2200E+02  0.2200E+02
    -11.843  0.0000E+00  0.0000E+00  0.2200E+02  0.2200E+02
    -11.724  0.0000E+00  0.0000E+00  0.2200E+02  0.2200E+02
    -11.605  0.0000E+00  0.0000E+00  0.2200E+02  0.2200E+02
    -11.487  0.0000E+00  0.0000E+00  0.2200E+02  0.2200E+02
    -11.368  0.0000E+00  0.0000E+00  0.2200E+02  0.2200E+02
    -11.249  0.0000E+00  0.0000E+00  0.2200E+02  0.2200E+02
    -11.130  0.0000E+00  0.0000E+00  0.2200E+02  0.2200E+02
    -11.011  0.0000E+00  0.0000E+00  0.2200E+02  0.2200E+02
    -10.893  0.0000E+00  0.0000E+00  0.2200E+02  0.2200E+02
    -10.774  0.2687E+00  0.2687E+00  0.2200E+02  0.2200E+02
    -10.655  0.5987E+02  0.5987E+02  0.2485E+02  0.2485E+02
    -10.536  0.7847E+02  0.7847E+02  0.2948E+02  0.2948E+02
    -10.418  0.8086E+02  0.8086E+02  0.3477E+02  0.3477E+02
    -10.299  0.5958E+02  0.5958E+02  0.4033E+02  0.4033E+02
    -10.180  0.5831E+02  0.5831E+02  0.4354E+02  0.4354E+02
    -10.061  0.1740E+01  0.1740E+01  0.4400E+02  0.4400E+02
     -9.942  0.0000E+00  0.0000E+00  0.4400E+02  0.4400E+02
     -9.824  0.1215E+01  0.1215E+01  0.4400E+02  0.4400E+02
     -9.705  0.1973E+02  0.1973E+02  0.4556E+02  0.4556E+02
     -9.586  0.1936E+01  0.1936E+01  0.4600E+02  0.4600E+02
     -9.467  0.0000E+00  0.0000E+00  0.4600E+02  0.4600E+02
     -9.348  0.0000E+00  0.0000E+00  0.4600E+02  0.4600E+02
     -9.230  0.0000E+00  0.0000E+00  0.4600E+02  0.4600E+02
     -9.111  0.0000E+00  0.0000E+00  0.4600E+02  0.4600E+02
     -8.992  0.0000E+00  0.0000E+00  0.4600E+02  0.4600E+02
     -8.873  0.0000E+00  0.0000E+00  0.4600E+02  0.4600E+02
     -8.754  0.0000E+00  0.0000E+00  0.4600E+02  0.4600E+02
     -8.636  0.0000E+00  0.0000E+00  0.4600E+02  0.4600E+02
     -8.517  0.0000E+00  0.0000E+00  0.4600E+02  0.4600E+02
     -8.398  0.0000E+00  0.0000E+00  0.4600E+02  0.4600E+02
     -8.279  0.0000E+00  0.0000E+00  0.4600E+02  0.4600E+02
     -8.160  0.0000E+00  0.0000E+00  0.4600E+02  0.4600E+02
     -8.042  0.0000E+00  0.0000E+00  0.4600E+02  0.4600E+02
     -7.923  0.0000E+00  0.0000E+00  0.4600E+02  0.4600E+02
     -7.804  0.0000E+00  0.0000E+00  0.4600E+02  0.4600E+02
     -7.685  0.0000E+00  0.0000E+00  0.4600E+02  0.4600E+02
     -7.566  0.0000E+00  0.0000E+00  0.4600E+02  0.4600E+02
     -7.448  0.0000E+00  0.0000E+00  0.4600E+02  0.4600E+02
     -7.329  0.0000E+00  0.0000E+00  0.4600E+02  0.4600E+02
     -7.210  0.0000E+00  0.0000E+00  0.4600E+02  0.4600E+02
     -7.091  0.0000E+00  0.0000E+00  0.4600E+02  0.4600E+02
     -6.972  0.0000E+00  0.0000E+00  0.4600E+02  0.4600E+02
     -6.854  0.0000E+00  0.0000E+00  0.4600E+02  0.4600E+02
     -6.735  0.0000E+00  0.0000E+00  0.4600E+02  0.4600E+02
     -6.616  0.0000E+00  0.0000E+00  0.4600E+02  0.4600E+02
     -6.497  0.0000E+00  0.0000E+00  0.4600E+02  0.4600E+02
     -6.378  0.0000E+00  0.0000E+00  0.4600E+02  0.4600E+02
     -6.260  0.0000E+00  0.0000E+00  0.4600E+02  0.4600E+02
     -6.141  0.0000E+00  0.0000E+00  0.4600E+02  0.4600E+02
     -6.022  0.0000E+00  0.0000E+00  0.4600E+02  0.4600E+02
     -5.903  0.0000E+00  0.0000E+00  0.4600E+02  0.4600E+02
     -5.784  0.0000E+00  0.0000E+00  0.4600E+02  0.4600E+02
     -5.666  0.0000E+00  0.0000E+00  0.4600E+02  0.4600E+02
     -5.547  0.0000E+00  0.0000E+00  0.4600E+02  0.4600E+02
     -5.428  0.0000E+00  0.0000E+00  0.4600E+02  0.4600E+02
     -5.309  0.0000E+00  0.0000E+00  0.4600E+02  0.4600E+02
     -5.190  0.0000E+00  0.0000E+00  0.4600E+02  0.4600E+02
     -5.072  0.0000E+00  0.0000E+00  0.4600E+02  0.4600E+02
     -4.953  0.0000E+00  0.0000E+00  0.4600E+02  0.4600E+02
     -4.834  0.0000E+00  0.0000E+00  0.4600E+02  0.4600E+02
     -4.715  0.0000E+00  0.0000E+00  0.4600E+02  0.4600E+02
     -4.596  0.0000E+00  0.0000E+00  0.4600E+02  0.4600E+02
     -4.478  0.0000E+00  0.0000E+00  0.4600E+02  0.4600E+02
     -4.359  0.0000E+00  0.0000E+00  0.4600E+02  0.4600E+02
     -4.240  0.0000E+00  0.0000E+00  0.4600E+02  0.4600E+02
     -4.121  0.0000E+00  0.0000E+00  0.4600E+02  0.4600E+02
     -4.003  0.0000E+00  0.0000E+00  0.4600E+02  0.4600E+02
     -3.884  0.0000E+00  0.0000E+00  0.4600E+02  0.4600E+02
     -3.765  0.0000E+00  0.0000E+00  0.4600E+02  0.4600E+02
     -3.646  0.7909E+01  0.7909E+01  0.4622E+02  0.4622E+02
     -3.527  0.3005E+02  0.3005E+02  0.4834E+02  0.4834E+02
     -3.409  0.5704E+02  0.5704E+02  0.5195E+02  0.5195E+02
     -3.290  0.6040E+02  0.6040E+02  0.5658E+02  0.5658E+02
     -3.171  0.6482E+02  0.6482E+02  0.5993E+02  0.5993E+02
     -3.052  0.5184E+02  0.5184E+02  0.6347E+02  0.6347E+02
     -2.933  0.4572E+02  0.4572E+02  0.6714E+02  0.6714E+02
     -2.815  0.3015E+02  0.3015E+02  0.7008E+02  0.7008E+02
     -2.696  0.8596E+02  0.8596E+02  0.7355E+02  0.7355E+02
     -2.577  0.7094E+02  0.7094E+02  0.7995E+02  0.7995E+02
     -2.458  0.1467E+02  0.1467E+02  0.8200E+02  0.8200E+02
     -2.339  0.0000E+00  0.0000E+00  0.8200E+02  0.8200E+02
     -2.221  0.0000E+00  0.0000E+00  0.8200E+02  0.8200E+02
     -2.102  0.0000E+00  0.0000E+00  0.8200E+02  0.8200E+02
     -1.983  0.0000E+00  0.0000E+00  0.8200E+02  0.8200E+02
     -1.864  0.0000E+00  0.0000E+00  0.8200E+02  0.8200E+02
     -1.745  0.0000E+00  0.0000E+00  0.8200E+02  0.8200E+02
     -1.627  0.0000E+00  0.0000E+00  0.8200E+02  0.8200E+02
     -1.508  0.0000E+00  0.0000E+00  0.8200E+02  0.8200E+02
     -1.389  0.0000E+00  0.0000E+00  0.8200E+02  0.8200E+02
     -1.270  0.0000E+00  0.0000E+00  0.8200E+02  0.8200E+02
     -1.151  0.0000E+00  0.0000E+00  0.8200E+02  0.8200E+02
     -1.033  0.0000E+00  0.0000E+00  0.8200E+02  0.8200E+02
     -0.914  0.0000E+00  0.0000E+00  0.8200E+02  0.8200E+02
     -0.795  0.0000E+00  0.0000E+00  0.8200E+02  0.8200E+02
     -0.676  0.0000E+00  0.0000E+00  0.8200E+02  0.8200E+02
     -0.557  0.0000E+00  0.0000E+00  0.8200E+02  0.8200E+02
     -0.439  0.0000E+00  0.0000E+00  0.8200E+02  0.8200E+02
     -0.320  0.0000E+00  0.0000E+00  0.8200E+02  0.8200E+02
     -0.201  0.0000E+00  0.0000E+00  0.8200E+02  0.8200E+02
     -0.082  0.3542E+02  0.3542E+02  0.8258E+02  0.8258E+02
      0.037  0.9522E+02  0.9522E+02  0.8707E+02  0.8707E+02
      0.155  0.3423E+01  0.3423E+01  0.8800E+02  0.8800E+02
      0.274  0.0000E+00  0.0000E+00  0.8800E+02  0.8800E+02
      0.393  0.0000E+00  0.0000E+00  0.8800E+02  0.8800E+02
      0.512  0.0000E+00  0.0000E+00  0.8800E+02  0.8800E+02
      0.631  0.0000E+00  0.0000E+00  0.8800E+02  0.8800E+02
      0.749  0.0000E+00  0.0000E+00  0.8800E+02  0.8800E+02
      0.868  0.0000E+00  0.0000E+00  0.8800E+02  0.8800E+02
      0.987  0.0000E+00  0.0000E+00  0.8800E+02  0.8800E+02
      1.106  0.0000E+00  0.0000E+00  0.8800E+02  0.8800E+02
      1.225  0.0000E+00  0.0000E+00  0.8800E+02  0.8800E+02
      1.343  0.0000E+00  0.0000E+00  0.8800E+02  0.8800E+02
      1.462  0.0000E+00  0.0000E+00  0.8800E+02  0.8800E+02
      1.581  0.0000E+00  0.0000E+00  0.8800E+02  0.8800E+02
      1.700  0.0000E+00  0.0000E+00  0.8800E+02  0.8800E+02
      1.819  0.0000E+00  0.0000E+00  0.8800E+02  0.8800E+02
      1.937  0.0000E+00  0.0000E+00  0.8800E+02  0.8800E+02
      2.056  0.0000E+00  0.0000E+00  0.8800E+02  0.8800E+02
      2.175  0.0000E+00  0.0000E+00  0.8800E+02  0.8800E+02
      2.294  0.0000E+00  0.0000E+00  0.8800E+02  0.8800E+02
      2.413  0.0000E+00  0.0000E+00  0.8800E+02  0.8800E+02
      2.531  0.0000E+00  0.0000E+00  0.8800E+02  0.8800E+02
      2.650  0.0000E+00  0.0000E+00  0.8800E+02  0.8800E+02
      2.769  0.0000E+00  0.0000E+00  0.8800E+02  0.8800E+02
      2.888  0.0000E+00  0.0000E+00  0.8800E+02  0.8800E+02
      3.006  0.0000E+00  0.0000E+00  0.8800E+02  0.8800E+02
      3.125  0.0000E+00  0.0000E+00  0.8800E+02  0.8800E+02
      3.244  0.0000E+00  0.0000E+00  0.8800E+02  0.8800E+02
      3.363  0.0000E+00  0.0000E+00  0.8800E+02  0.8800E+02
      3.482  0.0000E+00  0.0000E+00  0.8800E+02  0.8800E+02
      3.600  0.1422E-01  0.1422E-01  0.8800E+02  0.8800E+02
      3.719  0.2196E+00  0.2196E+00  0.8801E+02  0.8801E+02
      3.838  0.3634E+00  0.3634E+00  0.8805E+02  0.8805E+02
      3.957  0.4909E+00  0.4909E+00  0.8810E+02  0.8810E+02
      4.076  0.7684E+00  0.7684E+00  0.8817E+02  0.8817E+02
      4.194  0.1046E+01  0.1046E+01  0.8829E+02  0.8829E+02
      4.313  0.1046E+01  0.1046E+01  0.8841E+02  0.8841E+02
      4.432  0.3000E+01  0.3000E+01  0.8858E+02  0.8858E+02
      4.551  0.3444E+01  0.3444E+01  0.8904E+02  0.8904E+02
      4.670  0.3102E+01  0.3102E+01  0.8938E+02  0.8938E+02
      4.788  0.6320E+01  0.6320E+01  0.8986E+02  0.8986E+02
      4.907  0.6736E+01  0.6736E+01  0.9036E+02  0.9036E+02
      5.026  0.8285E+01  0.8285E+01  0.9112E+02  0.9112E+02
      5.145  0.8155E+01  0.8155E+01  0.9204E+02  0.9204E+02
      5.264  0.8811E+01  0.8811E+01  0.9297E+02  0.9297E+02
      5.382  0.7165E+01  0.7165E+01  0.9381E+02  0.9381E+02
      5.501  0.7312E+01  0.7312E+01  0.9459E+02  0.9459E+02
      5.620  0.6399E+01  0.6399E+01  0.9531E+02  0.9531E+02
      5.739  0.2287E+01  0.2287E+01  0.9568E+02  0.9568E+02
      5.858  0.1162E+01  0.1161E+01  0.9589E+02  0.9589E+02
      5.976  0.3499E+00  0.3503E+00  0.9598E+02  0.9598E+02
      6.095  0.6417E-01  0.6414E-01  0.9600E+02  0.9600E+02
      6.214  0.1348E-02  0.1290E-02  0.9600E+02  0.9600E+02
      6.333  0.0000E+00  0.0000E+00  0.9600E+02  0.9600E+02
      6.452  0.0000E+00  0.0000E+00  0.9600E+02  0.9600E+02
      6.570  0.0000E+00  0.0000E+00  0.9600E+02  0.9600E+02
      6.689  0.0000E+00  0.0000E+00  0.9600E+02  0.9600E+02
      6.808  0.0000E+00  0.0000E+00  0.9600E+02  0.9600E+02
      6.927  0.0000E+00  0.0000E+00  0.9600E+02  0.9600E+02
      7.046  0.0000E+00  0.0000E+00  0.9600E+02  0.9600E+02
      7.164  0.0000E+00  0.0000E+00  0.9600E+02  0.9600E+02
      7.283  0.0000E+00  0.0000E+00  0.9600E+02  0.9600E+02
      7.402  0.0000E+00  0.0000E+00  0.9600E+02  0.9600E+02
      7.521  0.0000E+00  0.0000E+00  0.9600E+02  0.9600E+02
      7.640  0.0000E+00  0.0000E+00  0.9600E+02  0.9600E+02
      7.758  0.0000E+00  0.0000E+00  0.9600E+02  0.9600E+02
      7.877  0.0000E+00  0.0000E+00  0.9600E+02  0.9600E+02
      7.996  0.0000E+00  0.0000E+00  0.9600E+02  0.9600E+02
      8.115  0.0000E+00  0.0000E+00  0.9600E+02  0.9600E+02
      8.234  0.0000E+00  0.0000E+00  0.9600E+02  0.9600E+02
      8.23352907    -27.40539116  301      3.56114682      1.00000000
    -27.405  0.0000E+00  0.0000E+00  0.0000E+00  0.0000E+00  0.0000E+00  0.0000E+00  0.0000E+00  0.0000E+00  0.0000E+00  0.0000E+00  0.0000E+00  0.0000E+00  0.0000E+00  0.0000E+00  0.0000E+00  0.0000E+00  0.0000E+00  0.0000E+00
    -27.287  0.0000E+00  0.0000E+00  0.0000E+00  0.0000E+00  0.0000E+00  0.0000E+00  0.0000E+00  0.0000E+00  0.0000E+00  0.0000E+00  0.0000E+00  0.0000E+00  0.0000E+00  0.0000E+00  0.0000E+00  0.0000E+00  0.0000E+00  0.0000E+00
    -27.168  0.0000E+00  0.0000E+00  0.0000E+00  0.0000E+00  0.0000E+00  0.0000E+00  0.0000E+00  0.0000E+00  0.0000E+00  0.0000E+00  0.0000E+00  0.0000E+00  0.0000E+00  0.0000E+00  0.0000E+00  0.0000E+00  0.0000E+00  0.0000E+00
    -27.049  0.0000E+00  0.0000E+00  0.0000E+00  0.0000E+00  0.0000E+00  0.0000E+00  0.0000E+00  0.0000E+00  0.0000E+00  0.0000E+00  0.0000E+00  0.0000E+00  0.0000E+00  0.0000E+00  0.0000E+00  0.0000E+00  0.0000E+00  0.0000E+00
    -26.930  0.0000E+00  0.0000E+00  0.0000E+00  0.0000E+00  0.0000E+00  0.0000E+00  0.0000E+00  0.0000E+00  0.0000E+00  0.0000E+00  0.0000E+00  0.0000E+00  0.0000E+00  0.0000E+00  0.0000E+00  0.0000E+00  0.0000E+00  0.0000E+00
    -26.811  0.0000E+00  0.0000E+00  0.0000E+00  0.0000E+00  0.0000E+00  0.0000E+00  0.0000E+00  0.0000E+00  0.0000E+00  0.0000E+00  0.0000E+00  0.0000E+00  0.0000E+00  0.0000E+00  0.0000E+00  0.0000E+00  0.0000E+00  0.0000E+00
    -26.693  0.0000E+00  0.0000E+00  0.0000E+00  0.0000E+00  0.0000E+00  0.0000E+00  0.0000E+00  0.0000E+00  0.0000E+00  0.0000E+00  0.0000E+00  0.0000E+00  0.0000E+00  0.0000E+00  0.0000E+00  0.0000E+00  0.0000E+00  0.0000E+00
    -26.574  0.0000E+00  0.0000E+00  0.0000E+00  0.0000E+00  0.0000E+00  0.0000E+00  0.0000E+00  0.0000E+00  0.0000E+00  0.0000E+00  0.0000E+00  0.0000E+00  0.0000E+00  0.0000E+00  0.0000E+00  0.0000E+00  0.0000E+00  0.0000E+00
    -26.455  0.0000E+00  0.0000E+00  0.0000E+00  0.0000E+00  0.0000E+00  0.0000E+00  0.0000E+00  0.0000E+00  0.0000E+00  0.0000E+00  0.0000E+00  0.0000E+00  0.0000E+00  0.0000E+00  0.0000E+00  0.0000E+00  0.0000E+00  0.0000E+00
    -26.336  0.0000E+00  0.0000E+00  0.0000E+00  0.0000E+00  0.0000E+00  0.0000E+00  0.0000E+00  0.0000E+00  0.0000E+00  0.0000E+00  0.0000E+00  0.0000E+00  0.0000E+00  0.0000E+00  0.0000E+00  0.0000E+00  0.0000E+00  0.0000E+00
    -26.217  0.0000E+00  0.0000E+00  0.0000E+00  0.0000E+00  0.0000E+00  0.0000E+00  0.0000E+00  0.0000E+00  0.0000E+00  0.0000E+00  0.0000E+00  0.0000E+00  0.0000E+00  0.0000E+00  0.0000E+00  0.0000E+00  0.0000E+00  0.0000E+00
    -26.099  0.0000E+00  0.0000E+00  0.0000E+00  0.0000E+00  0.0000E+00  0.0000E+00  0.0000E+00  0.0000E+00  0.0000E+00  0.0000E+00  0.0000E+00  0.0000E+00  0.0000E+00  0.0000E+00  0.0000E+00  0.0000E+00  0.0000E+00  0.0000E+00
    -25.980  0.0000E+00  0.0000E+00  0.0000E+00  0.0000E+00  0.0000E+00  0.0000E+00  0.0000E+00  0.0000E+00  0.0000E+00  0.0000E+00  0.0000E+00  0.0000E+00  0.0000E+00  0.0000E+00  0.0000E+00  0.0000E+00  0.0000E+00  0.0000E+00
    -25.861  0.0000E+00  0.0000E+00  0.0000E+00  0.0000E+00  0.0000E+00  0.0000E+00  0.0000E+00  0.0000E+00  0.0000E+00  0.0000E+00  0.0000E+00  0.0000E+00  0.0000E+00  0.0000E+00  0.0000E+00  0.0000E+00  0.0000E+00  0.0000E+00
    -25.742  0.0000E+00  0.0000E+00  0.0000E+00  0.0000E+00  0.0000E+00  0.0000E+00  0.0000E+00  0.0000E+00  0.0000E+00  0.0000E+00  0.0000E+00  0.0000E+00  0.0000E+00  0.0000E+00  0.0000E+00  0.0000E+00  0.0000E+00  0.0000E+00
    -25.623  0.0000E+00  0.0000E+00  0.0000E+00  0.0000E+00  0.0000E+00  0.0000E+00  0.0000E+00  0.0000E+00  0.0000E+00  0.0000E+00  0.0000E+00  0.0000E+00  0.0000E+00  0.0000E+00  0.0000E+00  0.0000E+00  0.0000E+00  0.0000E+00
    -25.505  0.0000E+00  0.0000E+00  0.0000E+00  0.0000E+00  0.0000E+00  0.0000E+00  0.0000E+00  0.0000E+00  0.0000E+00  0.0000E+00  0.0000E+00  0.0000E+00  0.0000E+00  0.0000E+00  0.0000E+00  0.0000E+00  0.0000E+00  0.0000E+00
    -25.386  0.5107E+00  0.5107E+00  0.6324E-05  0.6325E-05  0.7384E-05  0.7385E-05  0.2180E-04  0.2180E-04  0.3708E-07  0.3708E-07  0.1280E-06  0.1280E-06  0.1446E-06  0.1446E-06  0.2509E-05  0.2509E-05  0.6374E-06  0.6375E-06
    -25.267  0.3916E+01  0.3868E+01  0.8205E-04  0.8190E-04  0.1436E-03  0.1477E-03  0.1875E-03  0.1869E-03  0.1102E-05  0.1103E-05  0.2339E-04  0.2352E-04  0.1837E-05  0.1834E-05  0.5699E-04  0.5713E-04  0.2718E-04  0.2722E-04
    -25.148  0.6157E+01  0.6156E+01  0.7138E-04  0.7137E-04  0.1249E-03  0.1250E-03  0.7067E-04  0.7064E-04  0.5190E-05  0.5190E-05  0.3297E-04  0.3298E-04  0.3898E-05  0.3898E-05  0.7906E-04  0.7906E-04  0.3292E-04  0.3291E-04
    -25.029  0.0000E+00  0.0000E+00  0.0000E+00  0.0000E+00  0.0000E+00  0.0000E+00  0.0000E+00  0.0000E+00  0.0000E+00  0.0000E+00  0.0000E+00  0.0000E+00  0.0000E+00  0.0000E+00  0.0000E+00  0.0000E+00  0.0000E+00  0.0000E+00
    -24.911  0.0000E+00  0.0000E+00  0.0000E+00  0.0000E+00  0.0000E+00  0.0000E+00  0.0000E+00  0.0000E+00  0.0000E+00  0.0000E+00  0.0000E+00  0.0000E+00  0.0000E+00  0.0000E+00  0.0000E+00  0.0000E+00  0.0000E+00  0.0000E+00
    -24.792  0.0000E+00  0.0000E+00  0.0000E+00  0.0000E+00  0.0000E+00  0.0000E+00  0.0000E+00  0.0000E+00  0.0000E+00  0.0000E+00  0.0000E+00  0.0000E+00  0.0000E+00  0.0000E+00  0.0000E+00  0.0000E+00  0.0000E+00  0.0000E+00
    -24.673  0.0000E+00  0.0000E+00  0.0000E+00  0.0000E+00  0.0000E+00  0.0000E+00  0.0000E+00  0.0000E+00  0.0000E+00  0.0000E+00  0.0000E+00  0.0000E+00  0.0000E+00  0.0000E+00  0.0000E+00  0.0000E+00  0.0000E+00  0.0000E+00
    -24.554  0.0000E+00  0.0000E+00  0.0000E+00  0.0000E+00  0.0000E+00  0.0000E+00  0.0000E+00  0.0000E+00  0.0000E+00  0.0000E+00  0.0000E+00  0.0000E+00  0.0000E+00  0.0000E+00  0.0000E+00  0.0000E+00  0.0000E+00  0.0000E+00
    -24.435  0.0000E+00  0.0000E+00  0.0000E+00  0.0000E+00  0.0000E+00  0.0000E+00  0.0000E+00  0.0000E+00  0.0000E+00  0.0000E+00  0.0000E+00  0.0000E+00  0.0000E+00  0.0000E+00  0.0000E+00  0.0000E+00  0.0000E+00  0.0000E+00
    -24.317  0.0000E+00  0.0000E+00  0.0000E+00  0.0000E+00  0.0000E+00  0.0000E+00  0.0000E+00  0.0000E+00  0.0000E+00  0.0000E+00  0.0000E+00  0.0000E+00  0.0000E+00  0.0000E+00  0.0000E+00  0.0000E+00  0.0000E+00  0.0000E+00
    -24.198  0.0000E+00  0.0000E+00  0.0000E+00  0.0000E+00  0.0000E+00  0.0000E+00  0.0000E+00  0.0000E+00  0.0000E+00  0.0000E+00  0.0000E+00  0.0000E+00  0.0000E+00  0.0000E+00  0.0000E+00  0.0000E+00  0.0000E+00  0.0000E+00
    -24.079  0.0000E+00  0.0000E+00  0.0000E+00  0.0000E+00  0.0000E+00  0.0000E+00  0.0000E+00  0.0000E+00  0.0000E+00  0.0000E+00  0.0000E+00  0.0000E+00  0.0000E+00  0.0000E+00  0.0000E+00  0.0000E+00  0.0000E+00  0.0000E+00
    -23.960  0.0000E+00  0.0000E+00  0.0000E+00  0.0000E+00  0.0000E+00  0.0000E+00  0.0000E+00  0.0000E+00  0.0000E+00  0.0000E+00  0.0000E+00  0.0000E+00  0.0000E+00  0.0000E+00  0.0000E+00  0.0000E+00  0.0000E+00  0.0000E+00
    -23.841  0.0000E+00  0.0000E+00  0.0000E+00  0.0000E+00  0.0000E+00  0.0000E+00  0.0000E+00  0.0000E+00  0.0000E+00  0.0000E+00  0.0000E+00  0.0000E+00  0.0000E+00  0.0000E+00  0.0000E+00  0.0000E+00  0.0000E+00  0.0000E+00
    -23.723  0.0000E+00  0.0000E+00  0.0000E+00  0.0000E+00  0.0000E+00  0.0000E+00  0.0000E+00  0.0000E+00  0.0000E+00  0.0000E+00  0.0000E+00  0.0000E+00  0.0000E+00  0.0000E+00  0.0000E+00  0.0000E+00  0.0000E+00  0.0000E+00
    -23.604  0.0000E+00  0.0000E+00  0.0000E+00  0.0000E+00  0.0000E+00  0.0000E+00  0.0000E+00  0.0000E+00  0.0000E+00  0.0000E+00  0.0000E+00  0.0000E+00  0.0000E+00  0.0000E+00  0.0000E+00  0.0000E+00  0.0000E+00  0.0000E+00
    -23.485  0.0000E+00  0.0000E+00  0.0000E+00  0.0000E+00  0.0000E+00  0.0000E+00  0.0000E+00  0.0000E+00  0.0000E+00  0.0000E+00  0.0000E+00  0.0000E+00  0.0000E+00  0.0000E+00  0.0000E+00  0.0000E+00  0.0000E+00  0.0000E+00
    -23.366  0.0000E+00  0.0000E+00  0.0000E+00  0.0000E+00  0.0000E+00  0.0000E+00  0.0000E+00  0.0000E+00  0.0000E+00  0.0000E+00  0.0000E+00  0.0000E+00  0.0000E+00  0.0000E+00  0.0000E+00  0.0000E+00  0.0000E+00  0.0000E+00
    -23.248  0.0000E+00  0.0000E+00  0.0000E+00  0.0000E+00  0.0000E+00  0.0000E+00  0.0000E+00  0.0000E+00  0.0000E+00  0.0000E+00  0.0000E+00  0.0000E+00  0.0000E+00  0.0000E+00  0.0000E+00  0.0000E+00  0.0000E+00  0.0000E+00
    -23.129  0.0000E+00  0.0000E+00  0.0000E+00  0.0000E+00  0.0000E+00  0.0000E+00  0.0000E+00  0.0000E+00  0.0000E+00  0.0000E+00  0.0000E+00  0.0000E+00  0.0000E+00  0.0000E+00  0.0000E+00  0.0000E+00  0.0000E+00  0.0000E+00
    -23.010  0.0000E+00  0.0000E+00  0.0000E+00  0.0000E+00  0.0000E+00  0.0000E+00  0.0000E+00  0.0000E+00  0.0000E+00  0.0000E+00  0.0000E+00  0.0000E+00  0.0000E+00  0.0000E+00  0.0000E+00  0.0000E+00  0.0000E+00  0.0000E+00
    -22.891  0.0000E+00  0.0000E+00  0.0000E+00  0.0000E+00  0.0000E+00  0.0000E+00  0.0000E+00  0.0000E+00  0.0000E+00  0.0000E+00  0.0000E+00  0.0000E+00  0.0000E+00  0.0000E+00  0.0000E+00  0.0000E+00  0.0000E+00  0.0000E+00
    -22.772  0.0000E+00  0.0000E+00  0.0000E+00  0.0000E+00  0.0000E+00  0.0000E+00  0.0000E+00  0.0000E+00  0.0000E+00  0.0000E+00  0.0000E+00  0.0000E+00  0.0000E+00  0.0000E+00  0.0000E+00  0.0000E+00  0.0000E+00  0.0000E+00
    -22.654  0.0000E+00  0.0000E+00  0.0000E+00  0.0000E+00  0.0000E+00  0.0000E+00  0.0000E+00  0.0000E+00  0.0000E+00  0.0000E+00  0.0000E+00  0.0000E+00  0.0000E+00  0.0000E+00  0.0000E+00  0.0000E+00  0.0000E+00  0.0000E+00
    -22.535  0.0000E+00  0.0000E+00  0.0000E+00  0.0000E+00  0.0000E+00  0.0000E+00  0.0000E+00  0.0000E+00  0.0000E+00  0.0000E+00  0.0000E+00  0.0000E+00  0.0000E+00  0.0000E+00  0.0000E+00  0.0000E+00  0.0000E+00  0.0000E+00
    -22.416  0.0000E+00  0.0000E+00  0.0000E+00  0.0000E+00  0.0000E+00  0.0000E+00  0.0000E+00  0.0000E+00  0.0000E+00  0.0000E+00  0.0000E+00  0.0000E+00  0.0000E+00  0.0000E+00  0.0000E+00  0.0000E+00  0.0000E+00  0.0000E+00
    -22.297  0.0000E+00  0.0000E+00  0.0000E+00  0.0000E+00  0.0000E+00  0.0000E+00  0.0000E+00  0.0000E+00  0.0000E+00  0.0000E+00  0.0000E+00  0.0000E+00  0.0000E+00  0.0000E+00  0.0000E+00  0.0000E+00  0.0000E+00  0.0000E+00
    -22.178  0.0000E+00  0.0000E+00  0.0000E+00  0.0000E+00  0.0000E+00  0.0000E+00  0.0000E+00  0.0000E+00  0.0000E+00  0.0000E+00  0.0000E+00  0.0000E+00  0.0000E+00  0.0000E+00  0.0000E+00  0.0000E+00  0.0000E+00  0.0000E+00
    -22.060  0.0000E+00  0.0000E+00  0.0000E+00  0.0000E+00  0.0000E+00  0.0000E+00  0.0000E+00  0.0000E+00  0.0000E+00  0.0000E+00  0.0000E+00  0.0000E+00  0.0000E+00  0.0000E+00  0.0000E+00  0.0000E+00  0.0000E+00  0.0000E+00
    -21.941  0.0000E+00  0.0000E+00  0.0000E+00  0.0000E+00  0.0000E+00  0.0000E+00  0.0000E+00  0.0000E+00  0.0000E+00  0.0000E+00  0.0000E+00  0.0000E+00  0.0000E+00  0.0000E+00  0.0000E+00  0.0000E+00  0.0000E+00  0.0000E+00
    -21.822  0.0000E+00  0.0000E+00  0.0000E+00  0.0000E+00  0.0000E+00  0.0000E+00  0.0000E+00  0.0000E+00  0.0000E+00  0.0000E+00  0.0000E+00  0.0000E+00  0.0000E+00  0.0000E+00  0.0000E+00  0.0000E+00  0.0000E+00  0.0000E+00
    -21.703  0.0000E+00  0.0000E+00  0.0000E+00  0.0000E+00  0.0000E+00  0.0000E+00  0.0000E+00  0.0000E+00  0.0000E+00  0.0000E+00  0.0000E+00  0.0000E+00  0.0000E+00  0.0000E+00  0.0000E+00  0.0000E+00  0.0000E+00  0.0000E+00
    -21.584  0.0000E+00  0.0000E+00  0.0000E+00  0.0000E+00  0.0000E+00  0.0000E+00  0.0000E+00  0.0000E+00  0.0000E+00  0.0000E+00  0.0000E+00  0.0000E+00  0.0000E+00  0.0000E+00  0.0000E+00  0.0000E+00  0.0000E+00  0.0000E+00
    -21.466  0.5152E-01  0.5152E-01  0.3714E-03  0.3714E-03  0.1259E-01  0.1259E-01  0.1631E-01  0.1631E-01  0.5397E-05  0.5397E-05  0.2195E-03  0.2195E-03  0.5997E-04  0.5997E-04  0.5809E-02  0.5809E-02  0.3527E-02  0.3527E-02