  22   22    1    2
  4.8122876e+02   8.7478747e-10   8.7478747e-10   6.2884914e-10   5.0000000e-16
            1.000000e-04
  CAR
 DOS and projected DOS file by LOBSTER. Energy is shifted such that the Fermi level lies at 0 eV.
      8.58627245      -1.46397881   201       3.56114682       1.00000000
-5.02513  0.00000  0.00000 81.99967 81.99967
-4.97487  0.00000  0.00000 81.99967 81.99967
-4.92462  0.00000  0.00000 81.99967 81.99967
-4.87437  0.00000  0.00000 81.99967 81.99967
-4.82412  0.00000  0.00000 81.99967 81.99967
-4.77387  0.00000  0.00000 81.99967 81.99967
-4.72362  0.00000  0.00000 81.99967 81.99967
-4.67337  0.00000  0.00000 81.99967 81.99967
-4.62312  0.00000  0.00000 81.99967 81.99967
-4.57286  0.00000  0.00000 81.99967 81.99967
-4.52261  0.00000  0.00000 81.99967 81.99967
-4.47236  0.00000  0.00000 81.99967 81.99967
-4.42211  0.00000  0.00000 81.99967 81.99967
-4.37186  0.00000  0.00000 81.99967 81.99967
-4.32161  0.00000  0.00000 81.99967 81.99967
-4.27136  0.00000  0.00000 81.99967 81.99967
-4.22111  0.00000  0.00000 81.99967 81.99967
-4.17085  0.00000  0.00000 81.99967 81.99967
-4.12060  0.00000  0.00000 81.99967 81.99967
-4.07035  0.00000  0.00000 81.99967 81.99967
-4.02010  0.00000  0.00000 81.99967 81.99967
-3.96985  0.00000  0.00000 81.99967 81.99967
-3.91960  0.00000  0.00000 81.99967 81.99967
-3.86935  0.00000  0.00000 81.99967 81.99967
-3.81910  0.00000  0.00000 81.99967 81.99967
-3.76884  0.00000  0.00000 81.99967 81.99967
-3.71859  0.00000  0.00000 81.99967 81.99967
-3.66834  0.28316  0.28316 82.01390 82.01390
-3.61809 30.28846 30.28846 83.53593 83.53593
-3.56784 18.18220 18.18220 84.44961 84.44961
-3.51759 60.06586 60.06586 87.46800 87.46800
-3.46734 10.57985 10.57985 87.99965 87.99965
-3.41709  0.00000  0.00000 87.99965 87.99965
-3.36683  0.00000  0.00000 87.99965 87.99965
-3.31658  0.00000  0.00000 87.99965 87.99965
-3.26633  0.00000  0.00000 87.99965 87.99965
-3.21608  0.00000  0.00000 87.99965 87.99965
-3.16583  0.00000  0.00000 87.99965 87.99965
-3.11558  0.00000  0.00000 87.99965 87.99965
-3.06533  0.00000  0.00000 87.99965 87.99965
-3.01508  0.00000  0.00000 87.99965 87.99965
-2.96482  0.00000  0.00000 87.99965 87.99965
-2.91457  0.00000  0.00000 87.99965 87.99965
-2.86432  0.00000  0.00000 87.99965 87.99965
-2.81407  0.00000  0.00000 87.99965 87.99965
-2.76382  0.00000  0.00000 87.99965 87.99965
-2.71357  0.00000  0.00000 87.99965 87.99965
-2.66332  0.00000  0.00000 87.99965 87.99965
-2.61307  0.00000  0.00000 87.99965 87.99965
-2.56281  0.00000  0.00000 87.99965 87.99965
-2.51256  0.00000  0.00000 87.99965 87.99965
-2.46231  0.00000  0.00000 87.99965 87.99965
-2.41206  0.00000  0.00000 87.99965 87.99965
-2.36181  0.00000  0.00000 87.99965 87.99965
-2.31156  0.00000  0.00000 87.99965 87.99965
-2.26131  0.00000  0.00000 87.99965 87.99965
-2.21106  0.00000  0.00000 87.99965 87.99965
-2.16080  0.00000  0.00000 87.99965 87.99965
-2.11055  0.00000  0.00000 87.99965 87.99965
-2.06030  0.00000  0.00000 87.99965 87.99965
-2.01005  0.00000  0.00000 87.99965 87.99965
-1.95980  0.00000  0.00000 87.99965 87.99965
-1.90955  0.00000  0.00000 87.99965 87.99965
-1.85930  0.00000  0.00000 87.99965 87.99965
-1.80905  0.00000  0.00000 87.99965 87.99965
-1.75879  0.00000  0.00000 87.99965 87.99965
-1.70854  0.00000  0.00000 87.99965 87.99965
-1.65829  0.00000  0.00000 87.99965 87.99965
-1.60804  0.00000  0.00000 87.99965 87.99965
-1.55779  0.00000  0.00000 87.99965 87.99965
-1.50754  0.00000  0.00000 87.99965 87.99965
-1.45729  0.00000  0.00000 87.99965 87.99965
-1.40704  0.00000  0.00000 87.99965 87.99965
-1.35678  0.00000  0.00000 87.99965 87.99965
-1.30653  0.00000  0.00000 87.99965 87.99965
-1.25628  0.00000  0.00000 87.99965 87.99965
-1.20603  0.00000  0.00000 87.99965 87.99965
-1.15578  0.00000  0.00000 87.99965 87.99965
-1.10553  0.00000  0.00000 87.99965 87.99965
-1.05528  0.00000  0.00000 87.99965 87.99965
-1.00503  0.00000  0.00000 87.99965 87.99965
-0.95477  0.00000  0.00000 87.99965 87.99965
-0.90452  0.00000  0.00000 87.99965 87.99965
-0.85427  0.00000  0.00000 87.99965 87.99965
-0.80402  0.00000  0.00000 87.99965 87.99965
-0.75377  0.00000  0.00000 87.99965 87.99965
-0.70352  0.00000  0.00000 87.99965 87.99965
-0.65327  0.00000  0.00000 87.99965 87.99965
-0.60302  0.00000  0.00000 87.99965 87.99965
-0.55276  0.00000  0.00000 87.99965 87.99965
-0.50251  0.00000  0.00000 87.99965 87.99965
-0.45226  0.00000  0.00000 87.99965 87.99965
-0.40201  0.00000  0.00000 87.99965 87.99965
-0.35176  0.00000  0.00000 87.99965 87.99965
-0.30151  0.00000  0.00000 87.99965 87.99965
-0.25126  0.00000  0.00000 87.99965 87.99965
-0.20101  0.00000  0.00000 87.99965 87.99965
-0.15075  0.00000  0.00000 87.99965 87.99965
-0.10050  0.00000  0.00000 87.99965 87.99965
-0.05025  0.00000  0.00000 87.99965 87.99965
 0.00000  0.00000  0.00000 87.99965 87.99965
 0.05025  0.00776  0.00776 88.00004 88.00004
 0.10050  0.05384  0.05384 88.00274 88.00274
 0.15075  0.14494  0.14494 88.01003 88.01003
 0.20101  0.25422  0.25422 88.02280 88.02280
 0.25126  0.32756  0.32756 88.03926 88.03926
 0.30151  0.36356  0.36356 88.05753 88.05753
 0.35176  0.40213  0.40213 88.07774 88.07774
 0.40201  0.46370  0.46370 88.10104 88.10104
 0.45226  0.53942  0.53942 88.12815 88.12815
 0.50251  0.62237  0.62237 88.15942 88.15942
 0.55276  0.83388  0.83388 88.20133 88.20133
 0.60302  1.03915  1.03915 88.25354 88.25354
 0.65327  1.05273  1.05273 88.30645 88.30645
 0.70352  1.01147  1.01147 88.35727 88.35727
 0.75377  1.03473  1.03473 88.40927 88.40927
 0.80402  1.05377  1.05377 88.46222 88.46222
 0.85427  1.51394  1.51394 88.53830 88.53830
 0.90452  3.62595  3.62595 88.72051 88.72051
 0.95477  3.90424  3.90424 88.91670 88.91670
 1.00503  3.30031  3.30031 89.08255 89.08255
 1.05528  2.96821  2.96821 89.23170 89.23170
 1.10553  2.83910  2.83910 89.37437 89.37437
 1.15578  3.00212  3.00212 89.52523 89.52523
 1.20603  3.95209  3.95209 89.72383 89.72383
 1.25628  5.92035  5.92035 90.02133 90.02133
 1.30653  3.29339  3.29339 90.18683 90.18683
 1.35678  4.80557  4.80557 90.42832 90.42832
 1.40704  5.70954  5.70954 90.71523 90.71523
 1.45729  6.78730  6.78730 91.05630 91.05630
 1.50754  7.65516  7.65516 91.44098 91.44098
 1.55779  8.25035  8.25035 91.85557 91.85557
 1.60804  7.64630  7.64630 92.23981 92.23981
 1.65829  8.28473  8.28473 92.65613 92.65613
 1.70854  7.00761  7.00761 93.00827 93.00827
 1.75879  6.93418  6.93418 93.35672 93.35672
 1.80905  7.33950  7.33953 93.72554 93.72554
 1.85930  6.15401  6.15407 94.03478 94.03479
 1.90955  6.52143  6.52148 94.36249 94.36250
 1.95980  7.25454  7.25466 94.72704 94.72706
 2.01005  5.67856  5.67871 95.01240 95.01242
 2.06030  6.08687  6.08692 95.31827 95.31829
 2.11055  3.95438  3.95425 95.51698 95.51700
 2.16080  2.52205  2.52196 95.64372 95.64373
 2.21106  2.14783  2.14767 95.75165 95.75165
 2.26131  1.78919  1.78872 95.84156 95.84154
 2.31156  1.25278  1.25173 95.90451 95.90444
 2.36181  0.87896  0.87828 95.94868 95.94858
 2.41206  0.50118  0.50111 95.97387 95.97376
 2.46231  0.28324  0.28404 95.98810 95.98803
 2.51256  0.13683  0.13846 95.99498 95.99499
 2.56281  0.06155  0.06151 95.99807 95.99808
 2.61307  0.02589  0.02579 95.99937 95.99937
 2.66332  0.00487  0.00478 95.99961 95.99962
 2.71357  0.00002  0.00001 95.99962 95.99962
 2.76382  0.00000  0.00000 95.99962 95.99962
 2.81407  0.00000  0.00000 95.99962 95.99962
 2.86432  0.00000  0.00000 95.99962 95.99962
 2.91457  0.00000  0.00000 95.99962 95.99962
 2.96482  0.00000  0.00000 95.99962 95.99962
 3.01508  0.00000  0.00000 95.99962 95.99962
 3.06533  0.00000  0.00000 95.99962 95.99962
 3.11558  0.00000  0.00000 95.99962 95.99962
 3.16583  0.00000  0.00000 95.99962 95.99962
 3.21608  0.00000  0.00000 95.99962 95.99962
 3.26633  0.00000  0.00000 95.99962 95.99962
 3.31658  0.00000  0.00000 95.99962 95.99962
 3.36683  0.00000  0.00000 95.99962 95.99962
 3.41709  0.00000  0.00000 95.99962 95.99962
 3.46734  0.00000  0.00000 95.99962 95.99962
 3.51759  0.00000  0.00000 95.99962 95.99962
 3.56784  0.00000  0.00000 95.99962 95.99962
 3.61809  0.00000  0.00000 95.99962 95.99962
 3.66834  0.00000  0.00000 95.99962 95.99962
 3.71859  0.00000  0.00000 95.99962 95.99962
 3.76884  0.00000  0.00000 95.99962 95.99962
 3.81910  0.00000  0.00000 95.99962 95.99962
 3.86935  0.00000  0.00000 95.99962 95.99962
 3.91960  0.00000  0.00000 95.99962 95.99962
 3.96985  0.00000  0.00000 95.99962 95.99962
 4.02010  0.00000  0.00000 95.99962 95.99962
 4.07035  0.00000  0.00000 95.99962 95.99962
 4.12060  0.00000  0.00000 95.99962 95.99962
 4.17085  0.00000  0.00000 95.99962 95.99962
 4.22111  0.00000  0.00000 95.99962 95.99962
 4.27136  0.00000  0.00000 95.99962 95.99962
 4.32161  0.00000  0.00000 95.99962 95.99962
 4.37186  0.00000  0.00000 95.99962 95.99962
 4.42211  0.00000  0.00000 95.99962 95.99962
 4.47236  0.00000  0.00000 95.99962 95.99962
 4.52261  0.00000  0.00000 95.99962 95.99962
 4.57286  0.00000  0.00000 95.99962 95.99962
 4.62312  0.00000  0.00000 95.99962 95.99962
 4.67337  0.00000  0.00000 95.99962 95.99962
 4.72362  0.00000  0.00000 95.99962 95.99962
 4.77387  0.00000  0.00000 95.99962 95.99962
 4.82412  0.00000  0.00000 95.99962 95.99962
 4.87437  0.00000  0.00000 95.99962 95.99962
 4.92462  0.00000  0.00000 95.99962 95.99962
 4.97487  0.00000  0.00000 95.99962 95.99962
 5.02513  0.00000  0.00000 95.99962 95.99962
      5.02512563      -5.02512563   201       3.56114682       1.00000000; Z= 56; 5s 6s 5p_y 5p_z 5p_x
-5.02513  0.00000  0.00000  0.00000  0.00000  0.00000  0.00000  0.00000  0.00000  0.00000  0.00000
-4.97487  0.00000  0.00000  0.00000  0.00000  0.00000  0.00000  0.00000  0.00000  0.00000  0.00000
-4.92462  0.00000  0.00000  0.00000  0.00000  0.00000  0.00000  0.00000  0.00000  0.00000  0.00000
-4.87437  0.00000  0.00000  0.00000  0.00000  0.00000  0.00000  0.00000  0.00000  0.00000  0.00000
-4.82412  0.00000  0.00000  0.00000  0.00000  0.00000  0.00000  0.00000  0.00000  0.00000  0.00000
-4.77387  0.00000  0.00000  0.00000  0.00000  0.00000  0.00000  0.00000  0.00000  0.00000  0.00000
-4.72362  0.00000  0.00000  0.00000  0.00000  0.00000  0.00000  0.00000  0.00000  0.00000  0.00000
-4.67337  0.00000  0.00000  0.00000  0.00000  0.00000  0.00000  0.00000  0.00000  0.00000  0.00000
-4.62312  0.00000  0.00000  0.00000  0.00000  0.00000  0.00000  0.00000  0.00000  0.00000  0.00000
-4.57286  0.00000  0.00000  0.00000  0.00000  0.00000  0.00000  0.00000  0.00000  0.00000  0.00000
-4.52261  0.00000  0.00000  0.00000  0.00000  0.00000  0.00000  0.00000  0.00000  0.00000  0.00000
-4.47236  0.00000  0.00000  0.00000  0.00000  0.00000  0.00000  0.00000  0.00000  0.00000  0.00000
-4.42211  0.00000  0.00000  0.00000  0.00000  0.00000  0.00000  0.00000  0.00000  0.00000  0.00000
-4.37186  0.00000  0.00000  0.00000  0.00000  0.00000  0.00000  0.00000  0.00000  0.00000  0.00000
-4.32161  0.00000  0.00000  0.00000  0.00000  0.00000  0.00000  0.00000  0.00000  0.00000  0.00000
-4.27136  0.00000  0.00000  0.00000  0.00000  0.00000  0.00000  0.00000  0.00000  0.00000  0.00000
-4.22111  0.00000  0.00000  0.00000  0.00000  0.00000  0.00000  0.00000  0.00000  0.00000  0.00000
-4.17085  0.00000  0.00000  0.00000  0.00000  0.00000  0.00000  0.00000  0.00000  0.00000  0.00000
-4.12060  0.00000  0.00000  0.00000  0.00000  0.00000  0.00000  0.00000  0.00000  0.00000  0.00000
-4.07035  0.00000  0.00000  0.00000  0.00000  0.00000  0.00000  0.00000  0.00000  0.00000  0.00000
-4.02010  0.00000  0.00000  0.00000  0.00000  0.00000  0.00000  0.00000  0.00000  0.00000  0.00000
-3.96985  0.00000  0.00000  0.00000  0.00000  0.00000  0.00000  0.00000  0.00000  0.00000  0.00000
-3.91960  0.00000  0.00000  0.00000  0.00000  0.00000  0.00000  0.00000  0.00000  0.00000  0.00000
-3.86935  0.00000  0.00000  0.00000  0.00000  0.00000  0.00000  0.00000  0.00000  0.00000  0.00000
-3.81910  0.00000  0.00000  0.00000  0.00000  0.00000  0.00000  0.00000  0.00000  0.00000  0.00000
-3.76884  0.00000  0.00000  0.00000  0.00000  0.00000  0.00000  0.00000  0.00000  0.00000  0.00000
-3.71859  0.00000  0.00000  0.00000  0.00000  0.00000  0.00000  0.00000  0.00000  0.00000  0.00000
-3.66834  0.00003  0.00003  0.00016  0.00016  0.00001  0.00001  0.00002  0.00002  0.00073  0.00073
-3.61809  0.00780  0.00780  0.18301  0.18299  0.00048  0.00048  0.00375  0.00375  0.09151  0.09150
-3.56784  0.00268  0.00268  0.11477  0.11484  0.00313  0.00313  0.01365  0.01366  0.05183  0.05186
-3.51759  0.00834  0.00835  0.29717  0.29770  0.01628  0.01626  0.09095  0.09111  0.14821  0.14843
-3.46734  0.00112  0.00111  0.05586  0.05536  0.00329  0.00332  0.01881  0.01864  0.02730  0.02707
-3.41709  0.00000  0.00000  0.00000  0.00000  0.00000  0.00000  0.00000  0.00000  0.00000  0.00000
-3.36683  0.00000  0.00000  0.00000  0.00000  0.00000  0.00000  0.00000  0.00000  0.00000  0.00000
-3.31658  0.00000  0.00000  0.00000  0.00000  0.00000  0.00000  0.00000  0.00000  0.00000  0.00000
-3.26633  0.00000  0.00000  0.00000  0.00000  0.00000  0.00000  0.00000  0.00000  0.00000  0.00000
-3.21608  0.00000  0.00000  0.00000  0.00000  0.00000  0.00000  0.00000  0.00000  0.00000  0.00000
-3.16583  0.00000  0.00000  0.00000  0.00000  0.00000  0.00000  0.00000  0.00000  0.00000  0.00000
-3.11558  0.00000  0.00000  0.00000  0.00000  0.00000  0.00000  0.00000  0.00000  0.00000  0.00000
-3.06533  0.00000  0.00000  0.00000  0.00000  0.00000  0.00000  0.00000  0.00000  0.00000  0.00000
-3.01508  0.00000  0.00000  0.00000  0.00000  0.00000  0.00000  0.00000  0.00000  0.00000  0.00000
-2.96482  0.00000  0.00000  0.00000  0.00000  0.00000  0.00000  0.00000  0.00000  0.00000  0.00000
-2.91457  0.00000  0.00000  0.00000  0.00000  0.00000  0.00000  0.00000  0.00000  0.00000  0.00000
-2.86432  0.00000  0.00000  0.00000  0.00000  0.00000  0.00000  0.00000  0.00000  0.00000  0.00000
-2.81407  0.00000  0.00000  0.00000  0.00000  0.00000  0.00000  0.00000  0.00000  0.00000  0.00000
-2.76382  0.00000  0.00000  0.00000  0.00000  0.00000  0.00000  0.00000  0.00000  0.00000  0.00000
-2.71357  0.00000  0.00000  0.00000  0.00000  0.00000  0.00000  0.00000  0.00000  0.00000  0.00000
-2.66332  0.00000  0.00000  0.00000  0.00000  0.00000  0.00000  0.00000  0.00000  0.00000  0.00000
-2.61307  0.00000  0.00000  0.00000  0.00000  0.00000  0.00000  0.00000  0.00000  0.00000  0.00000
-2.56281  0.00000  0.00000  0.00000  0.00000  0.00000  0.00000  0.00000  0.00000  0.00000  0.00000
-2.51256  0.00000  0.00000  0.00000  0.00000  0.00000  0.00000  0.00000  0.00000  0.00000  0.00000
-2.46231  0.00000  0.00000  0.00000  0.00000  0.00000  0.00000  0.00000  0.00000  0.00000  0.00000
-2.41206  0.00000  0.00000  0.00000  0.00000  0.00000  0.00000  0.00000  0.00000  0.00000  0.00000
-2.36181  0.00000  0.00000  0.00000  0.00000  0.00000  0.00000  0.00000  0.00000  0.00000  0.00000
-2.31156  0.00000  0.00000  0.00000  0.00000  0.00000  0.00000  0.00000  0.00000  0.00000  0.00000
-2.26131  0.00000  0.00000  0.00000  0.00000  0.00000  0.00000  0.00000  0.00000  0.00000  0.00000
-2.21106  0.00000  0.00000  0.00000  0.00000  0.00000  0.00000  0.00000  0.00000  0.00000  0.00000
-2.16080  0.00000  0.00000  0.00000  0.00000  0.00000  0.00000  0.00000  0.00000  0.00000  0.00000
-2.11055  0.00000  0.00000  0.00000  0.00000  0.00000  0.00000  0.00000  0.00000  0.00000  0.00000
-2.06030  0.00000  0.00000  0.00000  0.00000  0.00000  0.00000  0.00000  0.00000  0.00000  0.00000
-2.01005  0.00000  0.00000  0.00000  0.00000  0.00000  0.00000  0.00000  0.00000  0.00000  0.00000
-1.95980  0.00000  0.00000  0.00000  0.00000  0.00000  0.00000  0.00000  0.00000  0.00000  0.00000
-1.90955  0.00000  0.00000  0.00000  0.00000  0.00000  0.00000  0.00000  0.00000  0.00000  0.00000
-1.85930  0.00000  0.00000  0.00000  0.00000  0.00000  0.00000  0.00000  0.00000  0.00000  0.00000
-1.80905  0.00000  0.00000  0.00000  0.00000  0.00000  0.00000  0.00000  0.00000  0.00000  0.00000
-1.75879  0.00000  0.00000  0.00000  0.00000  0.00000  0.00000  0.00000  0.00000  0.00000  0.00000
-1.70854  0.00000  0.00000  0.00000  0.00000  0.00000  0.00000  0.00000  0.00000  0.00000  0.00000
-1.65829  0.00000  0.00000  0.00000  0.00000  0.00000  0.00000  0.00000  0.00000  0.00000  0.00000
-1.60804  0.00000  0.00000  0.00000  0.00000  0.00000  0.00000  0.00000  0.00000  0.00000  0.00000
-1.55779  0.00000  0.00000  0.00000  0.00000  0.00000  0.00000  0.00000  0.00000  0.00000  0.00000
-1.50754  0.00000  0.00000  0.00000  0.00000  0.00000  0.00000  0.00000  0.00000  0.00000  0.00000
-1.45729  0.00000  0.00000  0.00000  0.00000  0.00000  0.00000  0.00000  0.00000  0.00000  0.00000
-1.40704  0.00000  0.00000  0.00000  0.00000  0.00000  0.00000  0.00000  0.00000  0.00000  0.00000
-1.35678  0.00000  0.00000  0.00000  0.00000  0.00000  0.00000  0.00000  0.00000  0.00000  0.00000
-1.30653  0.00000  0.00000  0.00000  0.00000  0.00000  0.00000  0.00000  0.00000  0.00000  0.00000
-1.25628  0.00000  0.00000  0.00000  0.00000  0.00000  0.00000  0.00000  0.00000  0.00000  0.00000
-1.20603  0.00000  0.00000  0.00000  0.00000  0.00000  0.00000  0.00000  0.00000  0.00000  0.00000
-1.15578  0.00000  0.00000  0.00000  0.00000  0.00000  0.00000  0.00000  0.00000  0.00000  0.00000
-1.10553  0.00000  0.00000  0.00000  0.00000  0.00000  0.00000  0.00000  0.00000  0.00000  0.00000
-1.05528  0.00000  0.00000  0.00000  0.00000  0.00000  0.00000  0.00000  0.00000  0.00000  0.00000
-1.00503  0.00000  0.00000  0.00000  0.00000  0.00000  0.00000  0.00000  0.00000  0.00000  0.00000
-0.95477  0.00000  0.00000  0.00000  0.00000  0.00000  0.00000  0.00000  0.00000  0.00000  0.00000
-0.90452  0.00000  0.00000  0.00000  0.00000  0.00000  0.00000  0.00000  0.00000  0.00000  0.00000
-0.85427  0.00000  0.00000  0.00000  0.00000  0.00000  0.00000  0.00000  0.00000  0.00000  0.00000
-0.80402  0.00000  0.00000  0.00000  0.00000  0.00000  0.00000  0.00000  0.00000  0.00000  0.00000
-0.75377  0.00000  0.00000  0.00000  0.00000  0.00000  0.00000  0.00000  0.00000  0.00000  0.00000
-0.70352  0.00000  0.00000  0.00000  0.00000  0.00000  0.00000  0.00000  0.00000  0.00000  0.00000
-0.65327  0.00000  0.00000  0.00000  0.00000  0.00000  0.00000  0.00000  0.00000  0.00000  0.00000
-0.60302  0.00000  0.00000  0.00000  0.00000  0.00000  0.00000  0.00000  0.00000  0.00000  0.00000
-0.55276  0.00000  0.00000  0.00000  0.00000  0.00000  0.00000  0.00000  0.00000  0.00000  0.00000
-0.50251  0.00000  0.00000  0.00000  0.00000  0.00000  0.00000  0.00000  0.00000  0.00000  0.00000
-0.45226  0.00000  0.00000  0.00000  0.00000  0.00000  0.00000  0.00000  0.00000  0.00000  0.00000
-0.40201  0.00000  0.00000  0.00000  0.00000  0.00000  0.00000  0.00000  0.00000  0.00000  0.00000
-0.35176  0.00000  0.00000  0.00000  0.00000  0.00000  0.00000  0.00000  0.00000  0.00000  0.00000
-0.30151  0.00000  0.00000  0.00000  0.00000  0.00000  0.00000  0.00000  0.00000  0.00000  0.00000
-0.25126  0.00000  0.00000  0.00000  0.00000  0.00000  0.00000  0.00000  0.00000  0.00000  0.00000
-0.20101  0.00000  0.00000  0.00000  0.00000  0.00000  0.00000  0.00000  0.00000  0.00000  0.00000
-0.15075  0.00000  0.00000  0.00000  0.00000  0.00000  0.00000  0.00000  0.00000  0.00000  0.00000
-0.10050  0.00000  0.00000  0.00000  0.00000  0.00000  0.00000  0.00000  0.00000  0.00000  0.00000
-0.05025  0.00000  0.00000  0.00000  0.00000  0.00000  0.00000  0.00000  0.00000  0.00000  0.00000
 0.00000  0.00000  0.00000  0.00000  0.00000 -0.00000 -0.00000 -0.00000 -0.00000  0.00000  0.00000
 0.05025  0.00000  0.00000  0.00117  0.00102 -0.00000 -0.00000 -0.00000 -0.00000  0.00000  0.00000
 0.10050  0.00001  0.00001  0.00814  0.00705 -0.00000 -0.00000 -0.00000 -0.00000  0.00000  0.00001
 0.15075  0.00002  0.00003  0.02146  0.01882 -0.00000 -0.00000 -0.00000 -0.00000  0.00001  0.00001
 0.20101  0.00006  0.00007  0.03413  0.03193 -0.00000 -0.00000 -0.00000 -0.00000  0.00002  0.00003
 0.25126  0.00009  0.00009  0.04168  0.04044 -0.00000 -0.00000 -0.00000 -0.00000  0.00004  0.00004
 0.30151  0.00011  0.00011  0.04509  0.04453  0.00000  0.00000  0.00000  0.00000  0.00005  0.00005
 0.35176  0.00013  0.00013  0.04901  0.04888  0.00001  0.00001  0.00000  0.00000  0.00007  0.00007
 0.40201  0.00017  0.00017  0.05563  0.05563  0.00001  0.00001  0.00001  0.00001  0.00009  0.00009
 0.45226  0.00021  0.00021  0.06387  0.06387  0.00002  0.00002  0.00001  0.00001  0.00011  0.00011
 0.50251  0.00026  0.00026  0.07308  0.07309  0.00003  0.00003  0.00002  0.00002  0.00014  0.00014
 0.55276  0.00037  0.00037  0.09722  0.09723  0.00004  0.00004  0.00004  0.00004  0.00022  0.00022
 0.60302  0.00048  0.00048  0.12088  0.12089  0.00007  0.00007  0.00006  0.00006  0.00030  0.00030
 0.65327  0.00053  0.00053  0.12127  0.12127  0.00009  0.00009  0.00008  0.00008  0.00033  0.00033
 0.70352  0.00056  0.00056  0.11606  0.11607  0.00011  0.00011  0.00011  0.00011  0.00034  0.00034
 0.75377  0.00062  0.00062  0.11823  0.11823  0.00013  0.00013  0.00014  0.00014  0.00037  0.00037
 0.80402  0.00069  0.00069  0.12007  0.12007  0.00014  0.00014  0.00018  0.00018  0.00039  0.00039
 0.85427  0.00150  0.00150  0.17093  0.17094  0.00026  0.00026  0.00024  0.00024  0.00091  0.00091
 0.90452  0.00601  0.00601  0.39955  0.39955  0.00057  0.00057  0.00038  0.00038  0.00375  0.00375
 0.95477  0.00764  0.00764  0.42808  0.42804  0.00066  0.00066  0.00059  0.00059  0.00392  0.00392
 1.00503  0.00637  0.00637  0.36088  0.36073  0.00067  0.00067  0.00081  0.00081  0.00273  0.00273
 1.05528  0.00594  0.00594  0.32550  0.32520  0.00061  0.00061  0.00105  0.00105  0.00207  0.00207
 1.10553  0.00632  0.00632  0.30796  0.30740  0.00064  0.00064  0.00144  0.00144  0.00150  0.00150
 1.15578  0.00756  0.00756  0.32293  0.32184  0.00070  0.00070  0.00185  0.00184  0.00131  0.00131
 1.20603  0.01102  0.01100  0.43089  0.42894  0.00095  0.00096  0.00282  0.00280  0.00132  0.00131
 1.25628  0.02973  0.02973  0.60957  0.61168  0.00151  0.00151  0.00409  0.00410  0.00155  0.00156
 1.30653  0.03843  0.03845  0.28808  0.28966  0.00090  0.00089  0.00073  0.00074  0.00106  0.00107
 1.35678  0.07298  0.07298  0.40635  0.40636  0.00127  0.00127  0.00064  0.00064  0.00177  0.00177
 1.40704  0.08429  0.08429  0.49038  0.49037  0.00202  0.00202  0.00099  0.00099  0.00202  0.00202
 1.45729  0.08486  0.08487  0.59787  0.59784  0.00339  0.00339  0.00139  0.00139  0.00229  0.00229
 1.50754  0.08105  0.08105  0.68589  0.68590  0.00302  0.00302  0.00284  0.00284  0.00265  0.00265
 1.55779  0.07730  0.07730  0.75281  0.75291  0.00252  0.00252  0.00405  0.00405  0.00323  0.00323
 1.60804  0.05771  0.05772  0.74307  0.74333  0.00247  0.00247  0.00440  0.00440  0.00274  0.00274
 1.65829  0.07314  0.07315  0.81598  0.81622  0.00327  0.00327  0.00458  0.00458  0.00210  0.00210
 1.70854  0.04910  0.04910  0.70382  0.70408  0.00353  0.00353  0.00401  0.00401  0.00191  0.00191
 1.75879  0.04144  0.04143  0.70456  0.70557  0.00355  0.00355  0.00367  0.00367  0.00212  0.00212
 1.80905  0.04618  0.04617  0.74236  0.74406  0.00360  0.00360  0.00345  0.00344  0.00257  0.00257
 1.85930  0.03668  0.03667  0.63299  0.63401  0.00338  0.00337  0.00252  0.00252  0.00243  0.00243
 1.90955  0.03295  0.03296  0.66661  0.66566  0.00370  0.00370  0.00234  0.00234  0.00288  0.00288
 1.95980  0.03111  0.03112  0.74726  0.74549  0.00366  0.00366  0.00267  0.00268  0.00348  0.00347
 2.01005  0.02019  0.02019  0.59643  0.59607  0.00255  0.00255  0.00199  0.00199  0.00310  0.00311
 2.06030  0.01653  0.01651  0.62739  0.63265  0.00245  0.00245  0.00231  0.00231  0.00385  0.00389
 2.11055  0.01321  0.01320  0.38079  0.38273  0.00163  0.00163  0.00187  0.00187  0.00222  0.00224
 2.16080  0.01031  0.01031  0.25705  0.25695  0.00115  0.00115  0.00114  0.00114  0.00115  0.00115
 2.21106  0.00949  0.00949  0.22691  0.22677  0.00093  0.00093  0.00094  0.00094  0.00091  0.00091
 2.26131  0.00876  0.00875  0.19564  0.19546  0.00074  0.00074  0.00075  0.00075  0.00068  0.00068
 2.31156  0.00725  0.00724  0.13416  0.13405  0.00050  0.00050  0.00045  0.00045  0.00042  0.00042
 2.36181  0.00590  0.00589  0.09027  0.09028  0.00037  0.00037  0.00026  0.00026  0.00026  0.00026
 2.41206  0.00335  0.00334  0.04770  0.04780  0.00021  0.00021  0.00011  0.00011  0.00012  0.00012
 2.46231  0.00178  0.00178  0.02590  0.02601  0.00012  0.00012  0.00006  0.00006  0.00006  0.00006
 2.51256  0.00064  0.00065  0.01373  0.01381  0.00004  0.00005  0.00003  0.00003  0.00003  0.00003
 2.56281  0.00019  0.00019  0.00696  0.00691  0.00002  0.00002  0.00002  0.00002  0.00001  0.00001
 2.61307  0.00008  0.00008  0.00295  0.00292  0.00001  0.00001  0.00001  0.00001  0.00001  0.00001
 2.66332  0.00001  0.00001  0.00056  0.00054  0.00000  0.00000  0.00000  0.00000  0.00000  0.00000
 2.71357  0.00000  0.00000  0.00000  0.00000  0.00000  0.00000  0.00000  0.00000  0.00000  0.00000
 2.76382  0.00000  0.00000  0.00000  0.00000  0.00000  0.00000  0.00000  0.00000  0.00000  0.00000
 2.81407  0.00000  0.00000  0.00000  0.00000  0.00000  0.00000  0.00000  0.00000  0.00000  0.00000
 2.86432  0.00000  0.00000  0.00000  0.00000  0.00000  0.00000  0.00000  0.00000  0.00000  0.00000
 2.91457  0.00000  0.00000  0.00000  0.00000  0.00000  0.00000  0.00000  0.00000  0.00000  0.00000
 2.96482  0.00000  0.00000  0.00000  0.00000  0.00000  0.00000  0.00000  0.00000  0.00000  0.00000
 3.01508  0.00000  0.00000  0.00000  0.00000  0.00000  0.00000  0.00000  0.00000  0.00000  0.00000
 3.06533  0.00000  0.00000  0.00000  0.00000  0.00000  0.00000  0.00000  0.00000  0.00000  0.00000
 3.11558  0.00000  0.00000  0.00000  0.00000  0.00000  0.00000  0.00000  0.00000  0.00000  0.00000
 3.16583  0.00000  0.00000  0.00000  0.00000  0.00000  0.00000  0.00000  0.00000  0.00000  0.00000
 3.21608  0.00000  0.00000  0.00000  0.00000  0.00000  0.00000  0.00000  0.00000  0.00000  0.00000
 3.26633  0.00000  0.00000  0.00000  0.00000  0.00000  0.00000  0.00000  0.00000  0.00000  0.00000
 3.31658  0.00000  0.00000  0.00000  0.00000  0.00000  0.00000  0.00000  0.00000  0.00000  0.00000
 3.36683  0.00000  0.00000  0.00000  0.00000  0.00000  0.00000  0.00000  0.00000  0.00000  0.00000
 3.41709  0.00000  0.00000  0.00000  0.00000  0.00000  0.00000  0.00000  0.00000  0.00000  0.00000
 3.46734  0.00000  0.00000  0.00000  0.00000  0.00000  0.00000  0.00000  0.00000  0.00000  0.00000
 3.51759  0.00000  0.00000  0.00000  0.00000  0.00000  0.00000  0.00000  0.00000  0.00000  0.00000
 3.56784  0.00000  0.00000  0.00000  0.00000  0.00000  0.00000  0.00000  0.00000  0.00000  0.00000
 3.61809  0.00000  0.00000  0.00000  0.00000  0.00000  0.00000  0.00000  0.00000  0.00000  0.00000
 3.66834  0.00000  0.00000  0.00000  0.00000  0.00000  0.00000  0.00000  0.00000  0.00000  0.00000
 3.71859  0.00000  0.00000  0.00000  0.00000  0.00000  0.00000  0.00000  0.00000  0.00000  0.00000
 3.76884  0.00000  0.00000  0.00000  0.00000  0.00000  0.00000  0.00000  0.00000  0.00000  0.00000
 3.81910  0.00000  0.00000  0.00000  0.00000  0.00000  0.00000  0.00000  0.00000  0.00000  0.00000
 3.86935  0.00000  0.00000  0.00000  0.00000  0.00000  0.00000  0.00000  0.00000  0.00000  0.00000
 3.91960  0.00000  0.00000  0.00000  0.00000  0.00000  0.00000  0.00000  0.00000  0.00000  0.00000
 3.96985  0.00000  0.00000  0.00000  0.00000  0.00000  0.00000  0.00000  0.00000  0.00000  0.00000
 4.02010  0.00000  0.00000  0.00000  0.00000  0.00000  0.00000  0.00000  0.00000  0.00000  0.00000
 4.07035  0.00000  0.00000  0.00000  0.00000  0.00000  0.00000  0.00000  0.00000  0.00000  0.00000
 4.12060  0.00000  0.00000  0.00000  0.00000  0.00000  0.00000  0.00000  0.00000  0.00000  0.00000
 4.17085  0.00000  0.00000  0.00000  0.00000  0.00000  0.00000  0.00000  0.00000  0.00000  0.00000
 4.22111  0.00000  0.00000  0.00000  0.00000  0.00000  0.00000  0.00000  0.00000  0.00000  0.00000
 4.27136  0.00000  0.00000  0.00000  0.00000  0.00000  0.00000  0.00000  0.00000  0.00000  0.00000
 4.32161  0.00000  0.00000  0.00000  0.00000  0.00000  0.00000  0.00000  0.00000  0.00000  0.00000
 4.37186  0.00000  0.00000  0.00000  0.00000  0.00000  0.00000  0.00000  0.00000  0.00000  0.00000
 4.42211  0.00000  0.00000  0.00000  0.00000  0.00000  0.00000  0.00000  0.00000  0.00000  0.00000
 4.47236  0.00000  0.00000  0.00000  0.00000  0.00000  0.00000  0.00000  0.00000  0.00000  0.00000
 4.52261  0.00000  0.00000  0.00000  0.00000  0.00000  0.00000  0.00000  0.00000  0.00000  0.00000
 4.57286  0.00000  0.00000  0.00000  0.00000  0.00000  0.00000  0.00000  0.00000  0.00000  0.00000
 4.62312  0.00000  0.00000  0.00000  0.00000  0.00000  0.00000  0.00000  0.00000  0.00000  0.00000
 4.67337  0.00000  0.00000  0.00000  0.00000  0.00000  0.00000  0.00000  0.00000  0.00000  0.00000
 4.72362  0.00000  0.00000  0.00000  0.00000  0.00000  0.00000  0.00000  0.00000  0.00000  0.00000
 4.77387  0.00000  0.00000  0.00000  0.00000  0.00000  0.00000  0.00000  0.00000  0.00000  0.00000
 4.82412  0.00000  0.00000  0.00000  0.00000  0.00000  0.00000  0.00000  0.00000  0.00000  0.00000
 4.87437  0.00000  0.00000  0.00000  0.00000  0.00000  0.00000  0.00000  0.00000  0.00000  0.00000
 4.92462  0.00000  0.00000  0.00000  0.00000  0.00000  0.00000  0.00000  0.00000  0.00000  0.00000
 4.97487  0.00000  0.00000  0.00000  0.00000  0.00000  0.00000  0.00000  0.00000  0.00000  0.00000
 5.02513  0.00000  0.00000  0.00000  0.00000  0.00000  0.00000  0.00000  0.00000  0.00000  0.00000
      5.02512563      -5.02512563   201       3.56114682       1.00000000; Z= 56; 5s 6s 5p_y 5p_z 5p_x
-5.02513  0.00000  0.00000  0.00000  0.00000  0.00000  0.00000  0.00000  0.00000  0.00000  0.00000
-4.97487  0.00000  0.00000  0.00000  0.00000  0.00000  0.00000  0.00000  0.00000  0.00000  0.00000
-4.92462  0.00000  0.00000  0.00000  0.00000  0.00000  0.00000  0.00000  0.00000  0.00000  0.00000
-4.87437  0.00000  0.00000  0.00000  0.00000  0.00000  0.00000  0.00000  0.00000  0.00000  0.00000
-4.82412  0.00000  0.00000  0.00000  0.00000  0.00000  0.00000  0.00000  0.00000  0.00000  0.00000