Automatically generated mesh
     101
Reciprocal lattice
    0.00000000000000    0.00000000000000    0.00000000000000             1
    0.20000000000000    0.00000000000000    0.00000000000000             2
    0.00000000000000    0.20000000000000    0.00000000000000             2
    0.40000000000000    0.00000000000000    0.00000000000000             2
    0.00000000000000    0.40000000000000    0.00000000000000             2
    0.20000000000000    0.20000000000000    0.00000000000000             2
   -0.20000000000000    0.20000000000000    0.00000000000000             2
    0.40000000000000    0.20000000000000    0.00000000000000             2
   -0.20000000000000    0.40000000000000    0.00000000000000             2
   -0.40000000000000    0.20000000000000    0.00000000000000             2
    0.20000000000000    0.40000000000000    0.00000000000000             2
    0.40000000000000    0.40000000000000    0.00000000000000             2
   -0.40000000000000    0.40000000000000    0.00000000000000             2
    0.00000000000000    0.00000000000000    0.12500000000000             2
    0.20000000000000    0.00000000000000    0.12500000000000             2
    0.00000000000000    0.20000000000000    0.12500000000000             2
   -0.20000000000000    0.00000000000000    0.12500000000000             2
    0.00000000000000   -0.20000000000000    0.12500000000000             2
    0.40000000000000    0.00000000000000    0.12500000000000             2
    0.00000000000000    0.40000000000000    0.12500000000000             2
   -0.40000000000000    0.00000000000000    0.12500000000000             2
    0.00000000000000   -0.40000000000000    0.12500000000000             2
    0.20000000000000    0.20000000000000    0.12500000000000             2
   -0.20000000000000    0.20000000000000    0.12500000000000             2
   -0.20000000000000   -0.20000000000000    0.12500000000000             2
    0.20000000000000   -0.20000000000000    0.12500000000000             2
    0.40000000000000    0.20000000000000    0.12500000000000             2
   -0.20000000000000    0.40000000000000    0.12500000000000             2
   -0.40000000000000   -0.20000000000000    0.12500000000000             2
    0.20000000000000   -0.40000000000000    0.12500000000000             2
   -0.40000000000000    0.20000000000000   -0.12500000000000             2
    0.20000000000000    0.40000000000000   -0.12500000000000             2
    0.40000000000000   -0.20000000000000   -0.12500000000000             2
   -0.20000000000000   -0.40000000000000   -0.12500000000000             2
    0.40000000000000    0.40000000000000    0.12500000000000             2
   -0.40000000000000    0.40000000000000    0.12500000000000             2
   -0.40000000000000   -0.40000000000000    0.12500000000000             2
    0.40000000000000   -0.40000000000000    0.12500000000000             2
    0.00000000000000    0.00000000000000    0.25000000000000             2
    0.20000000000000    0.00000000000000    0.25000000000000             2
    0.00000000000000    0.20000000000000    0.25000000000000             2
   -0.20000000000000    0.00000000000000    0.25000000000000             2
    0.00000000000000   -0.20000000000000    0.25000000000000             2
    0.40000000000000    0.00000000000000    0.25000000000000             2
    0.00000000000000    0.40000000000000    0.25000000000000             2
   -0.40000000000000    0.00000000000000    0.25000000000000             2
    0.00000000000000   -0.40000000000000    0.25000000000000             2
    0.20000000000000    0.20000000000000    0.25000000000000             2
   -0.20000000000000    0.20000000000000    0.25000000000000             2
   -0.20000000000000   -0.20000000000000    0.25000000000000             2
    0.20000000000000   -0.20000000000000    0.25000000000000             2
    0.40000000000000    0.20000000000000    0.25000000000000             2
   -0.20000000000000    0.40000000000000    0.25000000000000             2
   -0.40000000000000   -0.20000000000000    0.25000000000000             2
    0.20000000000000   -0.40000000000000    0.25000000000000             2
   -0.40000000000000    0.20000000000000   -0.25000000000000             2
    0.20000000000000    0.40000000000000   -0.25000000000000             2
    0.40000000000000   -0.20000000000000   -0.25000000000000             2
   -0.20000000000000   -0.40000000000000   -0.25000000000000             2
    0.40000000000000    0.40000000000000    0.25000000000000             2
   -0.40000000000000    0.40000000000000    0.25000000000000             2
   -0.40000000000000   -0.40000000000000    0.25000000000000             2
    0.40000000000000   -0.40000000000000    0.25000000000000             2
    0.00000000000000    0.00000000000000    0.37500000000000             2
    0.20000000000000    0.00000000000000    0.37500000000000             2
    0.00000000000000    0.20000000000000    0.37500000000000             2
   -0.20000000000000    0.00000000000000    0.37500000000000             2
    0.00000000000000   -0.20000000000000    0.37500000000000             2
    0.40000000000000    0.00000000000000    0.37500000000000             2
    0.00000000000000    0.40000000000000    0.37500000000000             2
   -0.40000000000000    0.00000000000000    0.37500000000000             2
    0.00000000000000   -0.40000000000000    0.37500000000000             2
    0.20000000000000    0.20000000000000    0.37500000000000             2
   -0.20000000000000    0.20000000000000    0.37500000000000             2
   -0.20000000000000   -0.20000000000000    0.37500000000000             2
    0.20000000000000   -0.20000000000000    0.37500000000000             2
    0.40000000000000    0.20000000000000    0.37500000000000             2
   -0.20000000000000    0.40000000000000    0.37500000000000             2
   -0.40000000000000   -0.20000000000000    0.37500000000000             2
    0.20000000000000   -0.40000000000000    0.37500000000000             2
   -0.40000000000000    0.20000000000000   -0.37500000000000             2
    0.20000000000000    0.40000000000000   -0.37500000000000             2
    0.40000000000000   -0.20000000000000   -0.37500000000000             2
   -0.20000000000000   -0.40000000000000   -0.37500000000000             2
    0.40000000000000    0.40000000000000    0.37500000000000             2
   -0.40000000000000    0.40000000000000    0.37500000000000             2
   -0.40000000000000   -0.40000000000000    0.37500000000000             2
    0.40000000000000   -0.40000000000000    0.37500000000000             2
    0.00000000000000    0.00000000000000    0.50000000000000             1
    0.20000000000000    0.00000000000000    0.50000000000000             2
    0.00000000000000    0.20000000000000    0.50000000000000             2
    0.40000000000000    0.00000000000000    0.50000000000000             2
    0.00000000000000    0.40000000000000    0.50000000000000             2
    0.20000000000000    0.20000000000000    0.50000000000000             2
   -0.20000000000000    0.20000000000000    0.50000000000000             2
    0.40000000000000    0.20000000000000    0.50000000000000             2
   -0.20000000000000    0.40000000000000    0.50000000000000             2
   -0.40000000000000    0.20000000000000    0.50000000000000             2
    0.20000000000000    0.40000000000000    0.50000000000000             2
    0.40000000000000    0.40000000000000    0.50000000000000             2
   -0.40000000000000    0.40000000000000    0.50000000000000             2
Tetrahedra
       598    0.00083333333333
         2        16        20        24        49
         2        20        24        28        49
         2        20        28        49        53
         2        16        20        41        49
         2        20        41        45        49
         2        20        45        49        53
         2        20        22        28        53
         2        22        28        32        53
         2        22        32        53        57
         2        20        22        45        53
         2        22        45        47        53
         2        22        47        53        57
         2        18        22        32        57
         2        18        25        32        57
         2        18        25        50        57
         2        18        22        47        57
         2        18        43        47        57
         2        18        43        50        57
         2        14        18        25        50
         2        14        17        25        50
         2        14        17        42        50
         2        14        18        43        50
         2        14        39        43        50
         2        14        39        42        50
         2        14        16        17        42
         2        16        17        24        42
         2        16        24        42        49
         2        14        16        39        42
         2        16        39        41        42
         2        16        41        42        49
         2        49        53        58        83
         2        53        58        61        83
         2        53        61        83        86
         2        49        53        74        83
         2        53        74        78        83
         2        53        78        83        86
         2        53        57        61        86
         2        57        61        62        86
         2        57        62        86        87
         2        53        57        78        86
         2        57        78        82        86
         2        57        82        86        87
         2        50        57        62        87
         2        50        54        62        87
         2        50        54        79        87
         2        50        57        82        87
         2        50        75        82        87
         2        50        75        79        87
         2        42        50        54        79
         2        42        46        54        79
         2        42        46        71        79
         2        42        50        75        79
         2        42        67        75        79
         2        42        67        71        79
         2        42        46        49        71
         2        46        49        58        71
         2        49        58        71        83
         2        42        49        67        71
         2        49        67        71        74
         2        49        71        74        83
         2        77        83        86        96
         2        77        85        86        96
         2        85        86        96       100
         2        83        86        96        98
         2        86        96        98       101
         2        86        96       100       101
         2        85        86        87       100
         2        85        87        88       100
         2        87        88       100       101
         2        86        87       100       101
         4        87       100       100       101
         2        79        87        88       101
         2        79        81        88       101
         2        79        81        98       101
         2        79        87       100       101
         2        79        96       100       101
         2        79        96        98       101
         2        71        79        81        98
         2        69        71        81        98
         2        69        71        92        98
         2        71        79        96        98
         2        71        92        96        98
         2        71        92        92        98
         2        69        71        83        92
         2        69        77        83        92
         2        77        83        92        96
         2        71        83        92        92
         2        83        92        92        98
         2        83        92        96        98
         2        75        94        96       100
         2        75        94        99       100
         2        75        82        99       100
         2        75        79        96       100
         2        75        79        87       100
         2        75        82        87       100
         2        82        99       100       101
         2        82        97        99       101
         2        78        82        97       101
         2        82        87       100       101
         2        82        86        87       101
         2        78        82        86       101
         2        78        97        98       101
         2        78        95        97        98
         2        74        78        95        98
         2        78        86        98       101
         2        78        83        86        98
         2        74        78        83        98
         2        74        92        95        98
         2        74        90        92        95
         2        67        74        90        92
         2        74        83        92        98
         2        71        74        83        92
         2        67        71        74        92
         2        67        90        92        96
         2        67        90        94        96
         2        67        75        94        96
         2        67        71        92        96
         2        67        71        79        96
         2        67        75        79        96
         2        43        68        75        82
         2        43        68        72        82
         2        43        47        72        82
         2        43        50        75        82
         2        43        50        57        82
         2        43        47        57        82
         2        47        72        78        82
         2        47        70        72        78
         2        45        47        70        78
         2        47        57        78        82
         2        47        53        57        78
         2        45        47        53        78
         2        45        70        74        78
         2        45        66        70        74
         2        41        45        66        74
         2        45        53        74        78
         2        45        49        53        74
         2        41        45        49        74
         2        41        66        67        74
         2        41        64        66        67
         2        39        41        64        67
         2        41        49        67        74
         2        41        42        49        67
         2        39        41        42        67
         2        39        64        67        75
         2        39        64        68        75
         2        39        43        68        75
         2        39        42        67        75
         2        39        42        50        75
         2        39        43        50        75
         2        26        43        47        51
         2        26        47        51        55
         2        26        30        47        55
         2        18        26        43        47
         2        18        22        26        47
         2        22        26        30        47
         2        30        45        47        55
         2        30        45        55        59
         2        30        34        45        59
         2        22        30        45        47
         2        20        22        30        45
         2        20        30        34        45
         2        34        41        45        59
         2        34        41        48        59
         2        23        34        41        48
         2        20        34        41        45
         2        16        20        34        41
         2        16        23        34        41
         2        23        39        41        48
         2        23        39        40        48
         2        15        23        39        40
         2        16        23        39        41
         2        14        16        23        39
         2        14        15        23        39
         2        15        39        40        43
         2        15        40        43        51
         2        15        26        43        51
         2        14        15        39        43
         2        14        15        18        43
         2        15        18        26        43
         2        10        26        30        31
         2        10        30        31        38
         2        10        13        30        38
         2         7        10        26        30
         2         7         9        10        30
         2         9        10        13        30
         2        13        30        34        38
         2        13        34        35        38
         2        12        13        34        35
         2         9        13        30        34
         2         9        11        13        34
         2        11        12        13        34
         2        12        23        34        35
         2        12        23        27        35
         2         8        12        23        27
         2        11        12        23        34
         2         6        11        12        23
         2         6         8        12        23
         2         8        15        23        27
         2         8        15        19        27
         2         4         8        15        19
         2         6         8        15        23
         2         2         6         8        15
         2         2         4         8        15
         2         4        15        19        26
         2         4        19        26        31
         2         4        10        26        31
         2         2         4        15        26
         2         2         4         7        26
         2         4         7        10        26
         2         8        10        13        27
         2         8        12        13        27
         2        12        13        27        35
         2        10        13        27        33
         2        13        27        33        36
         2        13        27        35        36
         4        12        12        13        35
         2        12        13        35        38
         2        12        13        35        36
         2        12        35        36        37
         2        12        35        37        38
         2         8        12        13        38
         2         8        10        13        38
         2         8        10        31        38
         2         8        12        37        38
         2         8        29        37        38
         2         8        29        31        38
         2         4         8        10        31
         2         4         4        10        31
         2         4         4        19        31
         2         4         8        29        31
         2         4        21        29        31
         2         4        19        21        31
         2         4         4        10        19
         2         4         8        10        19
         2         8        10        19        27
         2         4        10        19        21
         2        10        19        21        33
         2        10        19        27        33
         2        23        27        35        48
         2        23        34        35        48
         2        34        35        48        59
         2        27        35        48        52
         2        35        48        52        60
         2        35        48        59        60
         2        34        35        38        59
         2        30        34        38        59
         2        30        38        55        59
         2        35        38        59        60
         2        38        59        60        63
         2        38        55        59        63
         2        30        31        38        55
         2        26        30        31        55
         2        26        31        51        55
         2        31        38        55        63
         2        31        55        56        63
         2        31        51        55        56
         2        19        26        31        51
         2        15        19        26        51
         2        15        19        40        51
         2        19        31        51        56
         2        19        44        51        56
         2        19        40        44        51
         2        15        19        27        40
         2        15        23        27        40
         2        23        27        40        48
         2        19        27        40        44
         2        27        40        44        52
         2        27        40        48        52
         2        41        48        59        66
         2        41        45        59        66
         2        45        59        66        70
         2        48        59        66        73
         2        59        66        73        84
         2        59        66        70        84
         2        45        55        59        70
         2        45        47        55        70
         2        47        55        70        72
         2        55        59        70        84
         2        55        70        80        84
         2        55        70        72        80
         2        47        51        55        72
         2        43        47        51        72
         2        43        51        68        72
         2        51        55        72        80
         2        51        72        76        80
         2        51        68        72        76
         2        40        43        51        68
         2        39        40        43        68
         2        39        40        64        68
         2        40        51        68        76
         2        40        65        68        76
         2        40        64        65        68
         2        39        40        48        64
         2        39        41        48        64
         2        41        48        64        66
         2        40        48        64        65
         2        48        64        65        73
         2        48        64        66        73
         2        66        70        74        95
         2        70        74        78        95
         2        70        78        95        97
         2        66        70        91        95
         2        70        91        93        95
         2        70        93        95        97
         2        70        72        78        97
         2        72        78        82        97
         2        72        82        97        99
         2        70        72        93        97
         2        72        93        93        97
         2        72        93        97        99
         2        68        72        82        99
         2        68        75        82        99
         2        68        75        94        99
         2        68        72        93        99
         2        68        91        93        99
         2        68        91        94        99
         2        64        68        75        94
         2        64        67        75        94
         2        64        67        90        94
         2        64        68        91        94
         2        64        89        91        94
         2        64        89        90        94
         2        64        66        67        90
         2        66        67        74        90
         2        66        74        90        95
         2        64        66        89        90
         2        66        89        90        91
         2        66        90        91        95
         2        81        95        97        98
         2        81        97        98       101
         2        81        88        97       101
         2        76        81        95        97
         2        76        80        81        97
         2        80        81        88        97
         2        88        97        99       101
         2        88        99       100       101
         2        85        88        99       100
         2        80        88        97        99
         2        80        84        88        99
         2        84        85        88        99
         2        85        94        99       100
         2        85        94        96       100
         2        77        85        94        96
         2        84        85        94        99
         2        73        84        85        94
         2        73        77        85        94
         2        77        90        94        96
         2        77        90        92        96
         2        69        77        90        92
         2        73        77        90        94
         2        65        73        77        90
         2        65        69        77        90
         2        69        90        92        95
         2        69        92        95        98
         2        69        81        95        98
         2        65        69        90        95
         2        65        69        76        95
         2        69        76        81        95
         2        54        79        81        88
         2        54        79        87        88
         2        54        62        87        88
         2        54        56        81        88
         2        54        56        63        88
         2        54        62        63        88
         2        62        85        87        88
         2        62        85        86        87
         2        61        62        85        86
         2        62        63        85        88
         2        60        62        63        85
         2        60        61        62        85
         2        61        77        85        86
         2        61        77        83        86
         2        58        61        77        83
         2        60        61        77        85
         2        52        60        61        77
         2        52        58        61        77
         2        58        69        77        83
         2        58        69        71        83
         2        46        58        69        71
         2        52        58        69        77
         2        44        52        58        69
         2        44        46        58        69
         2        46        69        71        81
         2        46        71        79        81
         2        46        54        79        81
         2        44        46        69        81
         2        44        46        56        81
         2        46        54        56        81
         2        25        50        54        62
         2        25        50        57        62
         2        25        32        57        62
         2        25        29        54        62
         2        25        29        37        62
         2        25        32        37        62
         2        32        57        61        62
         2        32        53        57        61
         2        28        32        53        61
         2        32        37        61        62
         2        32        36        37        61
         2        28        32        36        61
         2        28        53        58        61
         2        28        49        53        58
         2        24        28        49        58
         2        28        36        58        61
         2        28        33        36        58
         2        24        28        33        58
         2        24        46        49        58
         2        24        42        46        49
         2        17        24        42        46
         2        24        33        46        58
         2        21        24        33        46
         2        17        21        24        46
         2        17        42        46        54
         2        17        42        50        54
         2        17        25        50        54
         2        17        21        46        54
         2        17        21        29        54
         2        17        25        29        54
         2         3        18        25        32
         2         3        18        22        32
         2         3         5        22        32
         2         3         6        25        32
         2         3         6        11        32
         2         3         5        11        32
         2         5        22        28        32
         2         5        20        22        28
         2         5         5        20        28
         2         5        11        28        32
         2         5         9        11        28
         2         5         5         9        28
         2         5        20        24        28
         2         5        16        20        24
         2         3         5        16        24
         2         5         9        24        28
         2         5         7         9        24
         2         3         5         7        24
         2         3        16        17        24