  COHP#       atomMU       atomNU     distance     translation      ICOHP (at) eF   for spin  1
      1          O10          Ba1      2.57441       0   0   0           -0.27844
      1       O10_2s       Ba1_5s      2.57441       0   0   0            0.00082
      1     O10_2p_y       Ba1_5s      2.57441       0   0   0           -0.00000
      1     O10_2p_z       Ba1_5s      2.57441       0   0   0           -0.01443
      1     O10_2p_x       Ba1_5s      2.57441       0   0   0           -0.02408
      1       O10_2s       Ba1_6s      2.57441       0   0   0           -0.16351
      1     O10_2p_y       Ba1_6s      2.57441       0   0   0           -0.00000
      1     O10_2p_z       Ba1_6s      2.57441       0   0   0           -0.02866
      1     O10_2p_x       Ba1_6s      2.57441       0   0   0           -0.04862
      1       O10_2s     Ba1_5p_y      2.57441       0   0   0           -0.00000
      1     O10_2p_y     Ba1_5p_y      2.57441       0   0   0            0.00207
      1     O10_2p_z     Ba1_5p_y      2.57441       0   0   0            0.00000
      1     O10_2p_x     Ba1_5p_y      2.57441       0   0   0           -0.00000
      1       O10_2s     Ba1_5p_z      2.57441       0   0   0            0.00141
      1     O10_2p_y     Ba1_5p_z      2.57441       0   0   0           -0.00000
      1     O10_2p_z     Ba1_5p_z      2.57441       0   0   0           -0.00181
      1     O10_2p_x     Ba1_5p_z      2.57441       0   0   0           -0.00003
      1       O10_2s     Ba1_5p_x      2.57441       0   0   0            0.00506
      1     O10_2p_y     Ba1_5p_x      2.57441       0   0   0           -0.00000
      1     O10_2p_z     Ba1_5p_x      2.57441       0   0   0           -0.00065
      1     O10_2p_x     Ba1_5p_x      2.57441       0   0   0           -0.00601
      2          F11          Ba1      2.76489       0   1   0           -0.18966
      2       F11_2s       Ba1_5s      2.76489       0   1   0            0.00013
      2     F11_2p_y       Ba1_5s      2.76489       0   1   0           -0.00847
      2     F11_2p_z       Ba1_5s      2.76489       0   1   0           -0.00279
      2     F11_2p_x       Ba1_5s      2.76489       0   1   0            0.00001
      2       F11_2s       Ba1_6s      2.76489       0   1   0           -0.13234
      2     F11_2p_y       Ba1_6s      2.76489       0   1   0           -0.03572
      2     F11_2p_z       Ba1_6s      2.76489       0   1   0           -0.01081
      2     F11_2p_x       Ba1_6s      2.76489       0   1   0           -0.00001
      2       F11_2s     Ba1_5p_y      2.76489       0   1   0            0.00187
      2     F11_2p_y     Ba1_5p_y      2.76489       0   1   0           -0.00201
      2     F11_2p_z     Ba1_5p_y      2.76489       0   1   0            0.00022
      2     F11_2p_x     Ba1_5p_y      2.76489       0   1   0           -0.00000
      2       F11_2s     Ba1_5p_z      2.76489       0   1   0            0.00046
      2     F11_2p_y     Ba1_5p_z      2.76489       0   1   0           -0.00016
      2     F11_2p_z     Ba1_5p_z      2.76489       0   1   0           -0.00054
      2     F11_2p_x     Ba1_5p_z      2.76489       0   1   0            0.00001
      2       F11_2s     Ba1_5p_x      2.76489       0   1   0            0.00000
      2     F11_2p_y     Ba1_5p_x      2.76489       0   1   0            0.00003
      2     F11_2p_z     Ba1_5p_x      2.76489       0   1   0            0.00003
      2     F11_2p_x     Ba1_5p_x      2.76489       0   1   0            0.00042
      3          F12          Ba1      2.76489       0   0   0           -0.18969
      3       F12_2s       Ba1_5s      2.76489       0   0   0            0.00013
      3     F12_2p_y       Ba1_5s      2.76489       0   0   0           -0.00848
      3     F12_2p_z       Ba1_5s      2.76489       0   0   0           -0.00279
      3     F12_2p_x       Ba1_5s      2.76489       0   0   0            0.00001
      3       F12_2s       Ba1_6s      2.76489       0   0   0           -0.13236
      3     F12_2p_y       Ba1_6s      2.76489       0   0   0           -0.03568
      3     F12_2p_z       Ba1_6s      2.76489       0   0   0           -0.01085
      3     F12_2p_x       Ba1_6s      2.76489       0   0   0           -0.00001
      3       F12_2s     Ba1_5p_y      2.76489       0   0   0            0.00187
      3     F12_2p_y     Ba1_5p_y      2.76489       0   0   0           -0.00199
      3     F12_2p_z     Ba1_5p_y      2.76489       0   0   0            0.00021
      3     F12_2p_x     Ba1_5p_y      2.76489       0   0   0           -0.00000
      3       F12_2s     Ba1_5p_z      2.76489       0   0   0            0.00045
      3     F12_2p_y     Ba1_5p_z      2.76489       0   0   0           -0.00016
      3     F12_2p_z     Ba1_5p_z      2.76489       0   0   0           -0.00054
      3     F12_2p_x     Ba1_5p_z      2.76489       0   0   0            0.00001
      3       F12_2s     Ba1_5p_x      2.76489       0   0   0            0.00000
      3     F12_2p_y     Ba1_5p_x      2.76489       0   0   0            0.00003
      3     F12_2p_z     Ba1_5p_x      2.76489       0   0   0            0.00003
      3     F12_2p_x     Ba1_5p_x      2.76489       0   0   0            0.00042
      4          F13          Ba1      2.62797       0   0   0           -0.22364
      4       F13_2s       Ba1_5s      2.62797       0   0   0            0.00008
      4     F13_2p_y       Ba1_5s      2.62797       0   0   0           -0.00000
      4     F13_2p_z       Ba1_5s      2.62797       0   0   0           -0.00380
      4     F13_2p_x       Ba1_5s      2.62797       0   0   0           -0.01018
      4       F13_2s       Ba1_6s      2.62797       0   0   0           -0.15954
      4     F13_2p_y       Ba1_6s      2.62797       0   0   0           -0.00000
      4     F13_2p_z       Ba1_6s      2.62797       0   0   0           -0.01277
      4     F13_2p_x       Ba1_6s      2.62797       0   0   0           -0.03754
      4       F13_2s     Ba1_5p_y      2.62797       0   0   0            0.00000
      4     F13_2p_y     Ba1_5p_y      2.62797       0   0   0            0.00053
      4     F13_2p_z     Ba1_5p_y      2.62797       0   0   0            0.00000
      4     F13_2p_x     Ba1_5p_y      2.62797       0   0   0           -0.00000
      4       F13_2s     Ba1_5p_z      2.62797       0   0   0            0.00104
      4     F13_2p_y     Ba1_5p_z      2.62797       0   0   0            0.00000
      4     F13_2p_z     Ba1_5p_z      2.62797       0   0   0           -0.00112
      4     F13_2p_x     Ba1_5p_z      2.62797       0   0   0           -0.00033
      4       F13_2s     Ba1_5p_x      2.62797       0   0   0            0.00252
      4     F13_2p_y     Ba1_5p_x      2.62797       0   0   0           -0.00000
      4     F13_2p_z     Ba1_5p_x      2.62797       0   0   0            0.00010
      4     F13_2p_x     Ba1_5p_x      2.62797       0   0   0           -0.00264
      5          F14          Ba1      2.70430       0   0   0           -0.18653
      5       F14_2s       Ba1_5s      2.70430       0   0   0            0.00016
      5     F14_2p_y       Ba1_5s      2.70430       0   0   0           -0.00000
      5     F14_2p_z       Ba1_5s      2.70430       0   0   0           -0.00382
      5     F14_2p_x       Ba1_5s      2.70430       0   0   0           -0.00681
      5       F14_2s       Ba1_6s      2.70430       0   0   0           -0.13982
      5     F14_2p_y       Ba1_6s      2.70430       0   0   0           -0.00000
      5     F14_2p_z       Ba1_6s      2.70430       0   0   0           -0.01682
      5     F14_2p_x       Ba1_6s      2.70430       0   0   0           -0.02198
      5       F14_2s     Ba1_5p_y      2.70430       0   0   0            0.00000
      5     F14_2p_y     Ba1_5p_y      2.70430       0   0   0            0.00054
      5     F14_2p_z     Ba1_5p_y      2.70430       0   0   0           -0.00000
      5     F14_2p_x     Ba1_5p_y      2.70430       0   0   0           -0.00000
      5       F14_2s     Ba1_5p_z      2.70430       0   0   0            0.00120
      5     F14_2p_y     Ba1_5p_z      2.70430       0   0   0           -0.00000
      5     F14_2p_z     Ba1_5p_z      2.70430       0   0   0           -0.00061
      5     F14_2p_x     Ba1_5p_z      2.70430       0   0   0            0.00041
      5       F14_2s     Ba1_5p_x      2.70430       0   0   0            0.00200
      5     F14_2p_y     Ba1_5p_x      2.70430       0   0   0           -0.00000
      5     F14_2p_z     Ba1_5p_x      2.70430       0   0   0            0.00048
      5     F14_2p_x     Ba1_5p_x      2.70430       0   0   0           -0.00145
      6          F21          Ba1      2.69266       0   1   0           -0.21410
      6       F21_2s       Ba1_5s      2.69266       0   1   0           -0.00016
      6     F21_2p_y       Ba1_5s      2.69266       0   1   0           -0.00643
      6     F21_2p_z       Ba1_5s      2.69266       0   1   0           -0.00489
      6     F21_2p_x       Ba1_5s      2.69266       0   1   0            0.00006
      6       F21_2s       Ba1_6s      2.69266       0   1   0           -0.15772
      6     F21_2p_y       Ba1_6s      2.69266       0   1   0           -0.02759
      6     F21_2p_z       Ba1_6s      2.69266       0   1   0           -0.02004
      6     F21_2p_x       Ba1_6s      2.69266       0   1   0           -0.00016
      6       F21_2s     Ba1_5p_y      2.69266       0   1   0            0.00157
      6     F21_2p_y     Ba1_5p_y      2.69266       0   1   0           -0.00133
      6     F21_2p_z     Ba1_5p_y      2.69266       0   1   0            0.00052
      6     F21_2p_x     Ba1_5p_y      2.69266       0   1   0           -0.00000
      6       F21_2s     Ba1_5p_z      2.69266       0   1   0            0.00155
      6     F21_2p_y     Ba1_5p_z      2.69266       0   1   0            0.00069
      6     F21_2p_z     Ba1_5p_z      2.69266       0   1   0           -0.00076
      6     F21_2p_x     Ba1_5p_z      2.69266       0   1   0            0.00002
      6       F21_2s     Ba1_5p_x      2.69266       0   1   0            0.00001
      6     F21_2p_y     Ba1_5p_x      2.69266       0   1   0            0.00001
      6     F21_2p_z     Ba1_5p_x      2.69266       0   1   0            0.00000
      6     F21_2p_x     Ba1_5p_x      2.69266       0   1   0            0.00056
      7          F22          Ba1      2.69266       0   0   0           -0.21405
      7       F22_2s       Ba1_5s      2.69266       0   0   0           -0.00016
      7     F22_2p_y       Ba1_5s      2.69266       0   0   0           -0.00642
      7     F22_2p_z       Ba1_5s      2.69266       0   0   0           -0.00488
      7     F22_2p_x       Ba1_5s      2.69266       0   0   0            0.00006
      7       F22_2s       Ba1_6s      2.69266       0   0   0           -0.15775
      7     F22_2p_y       Ba1_6s      2.69266       0   0   0           -0.02754
      7     F22_2p_z       Ba1_6s      2.69266       0   0   0           -0.02002
      7     F22_2p_x       Ba1_6s      2.69266       0   0   0           -0.00014
      7       F22_2s     Ba1_5p_y      2.69266       0   0   0            0.00158
      7     F22_2p_y     Ba1_5p_y      2.69266       0   0   0           -0.00134
      7     F22_2p_z     Ba1_5p_y      2.69266       0   0   0            0.00051
      7     F22_2p_x     Ba1_5p_y      2.69266       0   0   0           -0.00001
      7       F22_2s     Ba1_5p_z      2.69266       0   0   0            0.00155
      7     F22_2p_y     Ba1_5p_z      2.69266       0   0   0            0.00068
      7     F22_2p_z     Ba1_5p_z      2.69266       0   0   0           -0.00078
      7     F22_2p_x     Ba1_5p_z      2.69266       0   0   0            0.00002
      7       F22_2s     Ba1_5p_x      2.69266       0   0   0            0.00001
      7     F22_2p_y     Ba1_5p_x      2.69266       0   0   0            0.00001
      7     F22_2p_z     Ba1_5p_x      2.69266       0   0   0            0.00000
      7     F22_2p_x     Ba1_5p_x      2.69266       0   0   0            0.00056
      8           O9          Ba2      2.57441       0   0  -1           -0.27716
      8        O9_2s       Ba2_5s      2.57441       0   0  -1            0.00081
      8      O9_2p_y       Ba2_5s      2.57441       0   0  -1           -0.02394
      8      O9_2p_z       Ba2_5s      2.57441       0   0  -1           -0.01435
      8      O9_2p_x       Ba2_5s      2.57441       0   0  -1           -0.00000
      8        O9_2s       Ba2_6s      2.57441       0   0  -1           -0.16347
      8      O9_2p_y       Ba2_6s      2.57441       0   0  -1           -0.04787
      8      O9_2p_z       Ba2_6s      2.57441       0   0  -1           -0.02852
      8      O9_2p_x       Ba2_6s      2.57441       0   0  -1           -0.00000
      8        O9_2s     Ba2_5p_y      2.57441       0   0  -1            0.00505
      8      O9_2p_y     Ba2_5p_y      2.57441       0   0  -1           -0.00595
      8      O9_2p_z     Ba2_5p_y      2.57441       0   0  -1           -0.00059
      8      O9_2p_x     Ba2_5p_y      2.57441       0   0  -1           -0.00000
      8        O9_2s     Ba2_5p_z      2.57441       0   0  -1            0.00141
      8      O9_2p_y     Ba2_5p_z      2.57441       0   0  -1           -0.00003
      8      O9_2p_z     Ba2_5p_z      2.57441       0   0  -1           -0.00179
      8      O9_2p_x     Ba2_5p_z      2.57441       0   0  -1           -0.00000
      8        O9_2s     Ba2_5p_x      2.57441       0   0  -1           -0.00000
      8      O9_2p_y     Ba2_5p_x      2.57441       0   0  -1           -0.00000
      8      O9_2p_z     Ba2_5p_x      2.57441       0   0  -1            0.00000
      8      O9_2p_x     Ba2_5p_x      2.57441       0   0  -1            0.00208
      9          F11          Ba2      2.69266       0   0   0           -0.21466
      9       F11_2s       Ba2_5s      2.69266       0   0   0           -0.00016
      9     F11_2p_y       Ba2_5s      2.69266       0   0   0            0.00006
      9     F11_2p_z       Ba2_5s      2.69266       0   0   0           -0.00490
      9     F11_2p_x       Ba2_5s      2.69266       0   0   0           -0.00646
      9       F11_2s       Ba2_6s      2.69266       0   0   0           -0.15785
      9     F11_2p_y       Ba2_6s      2.69266       0   0   0           -0.00016
      9     F11_2p_z       Ba2_6s      2.69266       0   0   0           -0.02015
      9     F11_2p_x       Ba2_6s      2.69266       0   0   0           -0.02787
      9       F11_2s     Ba2_5p_y      2.69266       0   0   0            0.00001
      9     F11_2p_y     Ba2_5p_y      2.69266       0   0   0            0.00056
      9     F11_2p_z     Ba2_5p_y      2.69266       0   0   0            0.00000
      9     F11_2p_x     Ba2_5p_y      2.69266       0   0   0            0.00001
      9       F11_2s     Ba2_5p_z      2.69266       0   0   0            0.00154
      9     F11_2p_y     Ba2_5p_z      2.69266       0   0   0            0.00002
      9     F11_2p_z     Ba2_5p_z      2.69266       0   0   0           -0.00077
      9     F11_2p_x     Ba2_5p_z      2.69266       0   0   0            0.00069
      9       F11_2s     Ba2_5p_x      2.69266       0   0   0            0.00157
      9     F11_2p_y     Ba2_5p_x      2.69266       0   0   0           -0.00000
      9     F11_2p_z     Ba2_5p_x      2.69266       0   0   0            0.00051
      9     F11_2p_x     Ba2_5p_x      2.69266       0   0   0           -0.00133
     10          F13          Ba2      2.70430       0  -1   0           -0.18703
     10       F13_2s       Ba2_5s      2.70430       0  -1   0            0.00015
     10     F13_2p_y       Ba2_5s      2.70430       0  -1   0           -0.00682
     10     F13_2p_z       Ba2_5s      2.70430       0  -1   0           -0.00383
     10     F13_2p_x       Ba2_5s      2.70430       0  -1   0           -0.00000
     10       F13_2s       Ba2_6s      2.70430       0  -1   0           -0.14003
     10     F13_2p_y       Ba2_6s      2.70430       0  -1   0           -0.02214
     10     F13_2p_z       Ba2_6s      2.70430       0  -1   0           -0.01690
     10     F13_2p_x       Ba2_6s      2.70430       0  -1   0           -0.00000
     10       F13_2s     Ba2_5p_y      2.70430       0  -1   0            0.00200
     10     F13_2p_y     Ba2_5p_y      2.70430       0  -1   0           -0.00146
     10     F13_2p_z     Ba2_5p_y      2.70430       0  -1   0            0.00048
     10     F13_2p_x     Ba2_5p_y      2.70430       0  -1   0           -0.00000
     10       F13_2s     Ba2_5p_z      2.70430       0  -1   0            0.00120
     10     F13_2p_y     Ba2_5p_z      2.70430       0  -1   0            0.00040
     10     F13_2p_z     Ba2_5p_z      2.70430       0  -1   0           -0.00061
     10     F13_2p_x     Ba2_5p_z      2.70430       0  -1   0           -0.00000
     10       F13_2s     Ba2_5p_x      2.70430       0  -1   0            0.00000
     10     F13_2p_y     Ba2_5p_x      2.70430       0  -1   0           -0.00000
     10     F13_2p_z     Ba2_5p_x      2.70430       0  -1   0           -0.00000
     10     F13_2p_x     Ba2_5p_x      2.70430       0  -1   0            0.00054
     11          F14          Ba2      2.62797       0  -1  -1           -0.22313
     11       F14_2s       Ba2_5s      2.62797       0  -1  -1            0.00008
     11     F14_2p_y       Ba2_5s      2.62797       0  -1  -1           -0.01014
     11     F14_2p_z       Ba2_5s      2.62797       0  -1  -1           -0.00380
     11     F14_2p_x       Ba2_5s      2.62797       0  -1  -1           -0.00000
     11       F14_2s       Ba2_6s      2.62797       0  -1  -1           -0.15964
     11     F14_2p_y       Ba2_6s      2.62797       0  -1  -1           -0.03697
     11     F14_2p_z       Ba2_6s      2.62797       0  -1  -1           -0.01280
     11     F14_2p_x       Ba2_6s      2.62797       0  -1  -1           -0.00000
     11       F14_2s     Ba2_5p_y      2.62797       0  -1  -1            0.00252
     11     F14_2p_y     Ba2_5p_y      2.62797       0  -1  -1           -0.00260
     11     F14_2p_z     Ba2_5p_y      2.62797       0  -1  -1            0.00010
     11     F14_2p_x     Ba2_5p_y      2.62797       0  -1  -1           -0.00000
     11       F14_2s     Ba2_5p_z      2.62797       0  -1  -1            0.00104
     11     F14_2p_y     Ba2_5p_z      2.62797       0  -1  -1           -0.00034
     11     F14_2p_z     Ba2_5p_z      2.62797       0  -1  -1           -0.00112
     11     F14_2p_x     Ba2_5p_z      2.62797       0  -1  -1           -0.00000
     11       F14_2s     Ba2_5p_x      2.62797       0  -1  -1           -0.00000
     11     F14_2p_y     Ba2_5p_x      2.62797       0  -1  -1           -0.00000
     11     F14_2p_z     Ba2_5p_x      2.62797       0  -1  -1            0.00000
     11     F14_2p_x     Ba2_5p_x      2.62797       0  -1  -1            0.00053
     12          F16          Ba2      2.69266       0   0   0           -0.21430
     12       F16_2s       Ba2_5s      2.69266       0   0   0           -0.00016
     12     F16_2p_y       Ba2_5s      2.69266       0   0   0            0.00006
     12     F16_2p_z       Ba2_5s      2.69266       0   0   0           -0.00490
     12     F16_2p_x       Ba2_5s      2.69266       0   0   0           -0.00644
     12       F16_2s       Ba2_6s      2.69266       0   0   0           -0.15775
     12     F16_2p_y       Ba2_6s      2.69266       0   0   0           -0.00015
     12     F16_2p_z       Ba2_6s      2.69266       0   0   0           -0.02000
     12     F16_2p_x       Ba2_6s      2.69266       0   0   0           -0.02777
     12       F16_2s     Ba2_5p_y      2.69266       0   0   0            0.00001
     12     F16_2p_y     Ba2_5p_y      2.69266       0   0   0            0.00056
     12     F16_2p_z     Ba2_5p_y      2.69266       0   0   0            0.00000
     12     F16_2p_x     Ba2_5p_y      2.69266       0   0   0            0.00001
     12       F16_2s     Ba2_5p_z      2.69266       0   0   0            0.00154
     12     F16_2p_y     Ba2_5p_z      2.69266       0   0   0            0.00002
     12     F16_2p_z     Ba2_5p_z      2.69266       0   0   0           -0.00078
     12     F16_2p_x     Ba2_5p_z      2.69266       0   0   0            0.00068
     12       F16_2s     Ba2_5p_x      2.69266       0   0   0            0.00158
     12     F16_2p_y     Ba2_5p_x      2.69266       0   0   0           -0.00000
     12     F16_2p_z     Ba2_5p_x      2.69266       0   0   0            0.00052
     12     F16_2p_x     Ba2_5p_x      2.69266       0   0   0           -0.00133
     13          F17          Ba2      2.76489       0   0  -1           -0.18923
     13       F17_2s       Ba2_5s      2.76489       0   0  -1            0.00013
     13     F17_2p_y       Ba2_5s      2.76489       0   0  -1            0.00001
     13     F17_2p_z       Ba2_5s      2.76489       0   0  -1           -0.00278
     13     F17_2p_x       Ba2_5s      2.76489       0   0  -1           -0.00846
     13       F17_2s       Ba2_6s      2.76489       0   0  -1           -0.13240
     13     F17_2p_y       Ba2_6s      2.76489       0   0  -1           -0.00001
     13     F17_2p_z       Ba2_6s      2.76489       0   0  -1           -0.01073
     13     F17_2p_x       Ba2_6s      2.76489       0   0  -1           -0.03534
     13       F17_2s     Ba2_5p_y      2.76489       0   0  -1            0.00000
     13     F17_2p_y     Ba2_5p_y      2.76489       0   0  -1            0.00042
     13     F17_2p_z     Ba2_5p_y      2.76489       0   0  -1            0.00003
     13     F17_2p_x     Ba2_5p_y      2.76489       0   0  -1            0.00003
     13       F17_2s     Ba2_5p_z      2.76489       0   0  -1            0.00046
     13     F17_2p_y     Ba2_5p_z      2.76489       0   0  -1            0.00001
     13     F17_2p_z     Ba2_5p_z      2.76489       0   0  -1           -0.00054
     13     F17_2p_x     Ba2_5p_z      2.76489       0   0  -1           -0.00017
     13       F17_2s     Ba2_5p_x      2.76489       0   0  -1            0.00187
     13     F17_2p_y     Ba2_5p_x      2.76489       0   0  -1           -0.00000
     13     F17_2p_z     Ba2_5p_x      2.76489       0   0  -1            0.00021
     13     F17_2p_x     Ba2_5p_x      2.76489       0   0  -1           -0.00200
     14          F21          Ba2      2.76489       0   0  -1           -0.18944
     14       F21_2s       Ba2_5s      2.76489       0   0  -1            0.00013
     14     F21_2p_y       Ba2_5s      2.76489       0   0  -1            0.00001
     14     F21_2p_z       Ba2_5s      2.76489       0   0  -1           -0.00279
     14     F21_2p_x       Ba2_5s      2.76489       0   0  -1           -0.00846
     14       F21_2s       Ba2_6s      2.76489       0   0  -1           -0.13240
     14     F21_2p_y       Ba2_6s      2.76489       0   0  -1           -0.00001
     14     F21_2p_z       Ba2_6s      2.76489       0   0  -1           -0.01083
     14     F21_2p_x       Ba2_6s      2.76489       0   0  -1           -0.03543
     14       F21_2s     Ba2_5p_y      2.76489       0   0  -1            0.00000
     14     F21_2p_y     Ba2_5p_y      2.76489       0   0  -1            0.00042
     14     F21_2p_z     Ba2_5p_y      2.76489       0   0  -1            0.00003
     14     F21_2p_x     Ba2_5p_y      2.76489       0   0  -1            0.00003
     14       F21_2s     Ba2_5p_z      2.76489       0   0  -1            0.00046
     14     F21_2p_y     Ba2_5p_z      2.76489       0   0  -1            0.00001
     14     F21_2p_z     Ba2_5p_z      2.76489       0   0  -1           -0.00054
     14     F21_2p_x     Ba2_5p_z      2.76489       0   0  -1           -0.00016
     14       F21_2s     Ba2_5p_x      2.76489       0   0  -1            0.00187
     14     F21_2p_y     Ba2_5p_x      2.76489       0   0  -1           -0.00000
     14     F21_2p_z     Ba2_5p_x      2.76489       0   0  -1            0.00022
     14     F21_2p_x     Ba2_5p_x      2.76489       0   0  -1           -0.00201
     15           O9          Ba3      2.57441       0   0  -1           -0.27771
     15        O9_2s       Ba3_5s      2.57441       0   0  -1            0.00082
     15      O9_2p_y       Ba3_5s      2.57441       0   0  -1           -0.02372
     15      O9_2p_z       Ba3_5s      2.57441       0   0  -1           -0.01442
     15      O9_2p_x       Ba3_5s      2.57441       0   0  -1           -0.00000
     15        O9_2s       Ba3_6s      2.57441       0   0  -1           -0.16382
     15      O9_2p_y       Ba3_6s      2.57441       0   0  -1           -0.04755
     15      O9_2p_z       Ba3_6s      2.57441       0   0  -1           -0.02907
     15      O9_2p_x       Ba3_6s      2.57441       0   0  -1           -0.00000
     15        O9_2s     Ba3_5p_y      2.57441       0   0  -1            0.00506
     15      O9_2p_y     Ba3_5p_y      2.57441       0   0  -1           -0.00605
     15      O9_2p_z     Ba3_5p_y      2.57441       0   0  -1           -0.00064
     15      O9_2p_x     Ba3_5p_y      2.57441       0   0  -1           -0.00000
     15        O9_2s     Ba3_5p_z      2.57441       0   0  -1            0.00142
     15      O9_2p_y     Ba3_5p_z      2.57441       0   0  -1           -0.00002
     15      O9_2p_z     Ba3_5p_z      2.57441       0   0  -1           -0.00179
     15      O9_2p_x     Ba3_5p_z      2.57441       0   0  -1           -0.00000
     15        O9_2s     Ba3_5p_x      2.57441       0   0  -1           -0.00000
     15      O9_2p_y     Ba3_5p_x      2.57441       0   0  -1           -0.00000
     15      O9_2p_z     Ba3_5p_x      2.57441       0   0  -1           -0.00000
     15      O9_2p_x     Ba3_5p_x      2.57441       0   0  -1            0.00206
     16          F12          Ba3      2.69266       0   0   0           -0.21387
     16       F12_2s       Ba3_5s      2.69266       0   0   0           -0.00016
     16     F12_2p_y       Ba3_5s      2.69266       0   0   0            0.00006
     16     F12_2p_z       Ba3_5s      2.69266       0   0   0           -0.00485
     16     F12_2p_x       Ba3_5s      2.69266       0   0   0           -0.00642
     16       F12_2s       Ba3_6s      2.69266       0   0   0           -0.15768
     16     F12_2p_y       Ba3_6s      2.69266       0   0   0           -0.00015
     16     F12_2p_z       Ba3_6s      2.69266       0   0   0           -0.02002
     16     F12_2p_x       Ba3_6s      2.69266       0   0   0           -0.02750
     16       F12_2s     Ba3_5p_y      2.69266       0   0   0            0.00001
     16     F12_2p_y     Ba3_5p_y      2.69266       0   0   0            0.00056
     16     F12_2p_z     Ba3_5p_y      2.69266       0   0   0            0.00000
     16     F12_2p_x     Ba3_5p_y      2.69266       0   0   0            0.00002
     16       F12_2s     Ba3_5p_z      2.69266       0   0   0            0.00154
     16     F12_2p_y     Ba3_5p_z      2.69266       0   0   0            0.00002
     16     F12_2p_z     Ba3_5p_z      2.69266       0   0   0           -0.00077
     16     F12_2p_x     Ba3_5p_z      2.69266       0   0   0            0.00070
     16       F12_2s     Ba3_5p_x      2.69266       0   0   0            0.00157
     16     F12_2p_y     Ba3_5p_x      2.69266       0   0   0           -0.00000
     16     F12_2p_z     Ba3_5p_x      2.69266       0   0   0            0.00053
     16     F12_2p_x     Ba3_5p_x      2.69266       0   0   0           -0.00132
     17          F13          Ba3      2.70430       0   0   0           -0.18703
     17       F13_2s       Ba3_5s      2.70430       0   0   0            0.00015
     17     F13_2p_y       Ba3_5s      2.70430       0   0   0           -0.00679
     17     F13_2p_z       Ba3_5s      2.70430       0   0   0           -0.00384
     17     F13_2p_x       Ba3_5s      2.70430       0   0   0            0.00000
     17       F13_2s       Ba3_6s      2.70430       0   0   0           -0.14027
     17     F13_2p_y       Ba3_6s      2.70430       0   0   0           -0.02204
     17     F13_2p_z       Ba3_6s      2.70430       0   0   0           -0.01681
     17     F13_2p_x       Ba3_6s      2.70430       0   0   0           -0.00000
     17       F13_2s     Ba3_5p_y      2.70430       0   0   0            0.00200
     17     F13_2p_y     Ba3_5p_y      2.70430       0   0   0           -0.00147
     17     F13_2p_z     Ba3_5p_y      2.70430       0   0   0            0.00049
     17     F13_2p_x     Ba3_5p_y      2.70430       0   0   0           -0.00000
     17       F13_2s     Ba3_5p_z      2.70430       0   0   0            0.00120
     17     F13_2p_y     Ba3_5p_z      2.70430       0   0   0            0.00042
     17     F13_2p_z     Ba3_5p_z      2.70430       0   0   0           -0.00061
     17     F13_2p_x     Ba3_5p_z      2.70430       0   0   0            0.00000
     17       F13_2s     Ba3_5p_x      2.70430       0   0   0            0.00000
     17     F13_2p_y     Ba3_5p_x      2.70430       0   0   0           -0.00000
     17     F13_2p_z     Ba3_5p_x      2.70430       0   0   0           -0.00000
     17     F13_2p_x     Ba3_5p_x      2.70430       0   0   0            0.00054
     18          F14          Ba3      2.62797       0   0  -1           -0.22312
     18       F14_2s       Ba3_5s      2.62797       0   0  -1            0.00007
     18     F14_2p_y       Ba3_5s      2.62797       0   0  -1           -0.01016
     18     F14_2p_z       Ba3_5s      2.62797       0   0  -1           -0.00386
     18     F14_2p_x       Ba3_5s      2.62797       0   0  -1           -0.00000
     18       F14_2s       Ba3_6s      2.62797       0   0  -1           -0.15956
     18     F14_2p_y       Ba3_6s      2.62797       0   0  -1           -0.03682