       N       E                     dE             d eps       ncg     rms          rms(c)
DAV:   1    -0.103979714544E+03   -0.10398E+03   -0.18841E+03 40112   0.122E+02    0.734E+00
DAV:   2    -0.129351707336E+03   -0.25372E+02   -0.25919E+02 48608   0.365E+01    0.703E+00
DAV:   3    -0.130133064071E+03   -0.78136E+00   -0.85049E+00 54080   0.732E+00    0.477E+00
DAV:   4    -0.130158728843E+03   -0.25665E-01   -0.39714E-01 47232   0.180E+00    0.174E+00
DAV:   5    -0.130146763080E+03    0.11966E-01   -0.65671E-02 42448   0.765E-01    0.249E-01
DAV:   6    -0.130146596300E+03    0.16678E-03   -0.10975E-02 46736   0.314E-01    0.607E-02
DAV:   7    -0.130146639058E+03   -0.42758E-04   -0.54458E-04 45608   0.800E-02    0.304E-02
DAV:   8    -0.130146649915E+03   -0.10857E-04   -0.11067E-04 44904   0.417E-02    0.174E-02
DAV:   9    -0.130146653278E+03   -0.33631E-05   -0.12775E-05 43776   0.149E-02    0.103E-02
DAV:  10    -0.130146652421E+03    0.85742E-06   -0.11231E-05 43040   0.151E-02    0.218E-03
DAV:  11    -0.130146652766E+03   -0.34538E-06   -0.14020E-06 41056   0.469E-03    0.119E-03
DAV:  12    -0.130146652976E+03   -0.20999E-06   -0.36166E-07 33536   0.270E-03    0.994E-04
DAV:  13    -0.130146653006E+03   -0.29324E-07   -0.14395E-07 24264   0.162E-03
   1 F= -.13014665E+03 E0= -.13014665E+03  d E =0.000000E+00  mag=    -0.0000
