 vasp.6.3.1 04May22 (build May  6 2022 16:02:18) complex
 executed on             LinuxGNU date 2023.03.18  01:59:18
 running   80 mpi-ranks, with    1 threads/rank
 distrk:  each k-point on   80 cores,    1 groups
 distr:  one band on NCORE=  20 cores,    4 groups


--------------------------------------------------------------------------------------------------------


 INCAR:
   ALGO = Normal
   EDIFF = 1e-07
   ENAUG = 1360.0
   ENCUT = 680
   GGA = Ps
   IBRION = 2
   ISIF = 2
   ISMEAR = -5
   ISPIN = 2
   ISYM = 0
   LAECHG = False
   LASPH = True
   LCHARG = False
   LELF = False
   LMAXMIX = 4
   LMIXTAU = True
   LORBIT = 11
   LREAL = False
   LVTOT = True
   LWAVE = True
   MAGMOM = 22*0.6
   NBANDS = 96
   NELM = 200
   NPAR = 4
   NSW = 0
   PREC = Accurate
   SIGMA = 0.2

 POTCAR:    PAW_PBE Ba_sv 06Sep2000
 POTCAR:    PAW_PBE O 08Apr2002
 POTCAR:    PAW_PBE F 08Apr2002
 WARNING: For LVTOT=.TRUE., VASP.5.x writes the TOTAL local potential to the
     file LOCPOT. If you want only the Hartree contributions, use LVHAR=.TRUE.
     instead.

 POTCAR:    PAW_PBE Ba_sv 06Sep2000
   VRHFIN =Ba: 5s5p6s
   LEXCH  = PE
   EATOM  =   700.8560 eV,   51.5115 Ry

   TITEL  = PAW_PBE Ba_sv 06Sep2000
   LULTRA =        F    use ultrasoft PP ?
   IUNSCR =        1    unscreen: 0-lin 1-nonlin 2-no
   RPACOR =    2.400    partial core radius
   POMASS =  137.327; ZVAL   =   10.000    mass and valenz
   RCORE  =    2.800    outmost cutoff radius
   RWIGS  =    3.740; RWIGS  =    1.979    wigner-seitz radius (au A)
   ENMAX  =  187.181; ENMIN  =  140.386 eV
   RCLOC  =    2.516    cutoff for local pot
   LCOR   =        T    correct aug charges
   LPAW   =        T    paw PP
   EAUG   =  351.165
   DEXC   =    0.000
   RMAX   =    2.865    core radius for proj-oper
   RAUG   =    1.300    factor for augmentation sphere
   RDEP   =    2.976    radius for radial grids
   RDEPT  =    2.289    core radius for aug-charge

   Atomic configuration
   13 entries
     n  l   j            E        occ.
     1  0  0.50    -37249.5946   2.0000
     2  0  0.50     -5887.1925   2.0000
     2  1  1.50     -5278.3977   6.0000
     3  0  0.50     -1242.7293   2.0000
     3  1  1.50     -1047.6609   6.0000
     3  2  2.50      -764.6158  10.0000
     4  0  0.50      -243.8228   2.0000
     4  1  1.50      -180.9218   6.0000
     4  2  2.50       -89.6477  10.0000
     5  0  0.50       -33.6549   2.0000
     6  0  0.50        -3.2247   1.9900
     5  1  1.50       -18.7193   6.0000
     5  2  2.50        -2.0115   0.0100
   Description
     l       E           TYP  RCUT    TYP  RCUT
     0    -33.6549039     23  2.800
     0     -3.2246942     23  2.800
     1    -18.7193050     23  2.700
     1     27.2116520     23  2.700
     2     -2.0115002     23  2.700
     2      0.3057420     23  2.700
  local pseudopotential read in
  partial core-charges read in
  partial kinetic energy density read in
  atomic valenz-charges read in
  non local Contribution for L=           0  read in
    real space projection operators read in
  non local Contribution for L=           0  read in
    real space projection operators read in
  non local Contribution for L=           1  read in
    real space projection operators read in
  non local Contribution for L=           1  read in
    real space projection operators read in
  non local Contribution for L=           2  read in
    real space projection operators read in
  non local Contribution for L=           2  read in
    real space projection operators read in
    PAW grid and wavefunctions read in

   number of l-projection  operators is LMAX  =           6
   number of lm-projection operators is LMMAX =          18

 POTCAR:    PAW_PBE O 08Apr2002
   VRHFIN =O: s2p4
   LEXCH  = PE
   EATOM  =   432.3788 eV,   31.7789 Ry

   TITEL  = PAW_PBE O 08Apr2002
   LULTRA =        F    use ultrasoft PP ?
   IUNSCR =        1    unscreen: 0-lin 1-nonlin 2-no
   RPACOR =    1.200    partial core radius
   POMASS =   16.000; ZVAL   =    6.000    mass and valenz
   RCORE  =    1.520    outmost cutoff radius
   RWIGS  =    1.550; RWIGS  =    0.820    wigner-seitz radius (au A)
   ENMAX  =  400.000; ENMIN  =  300.000 eV
   ICORE  =        2    local potential
   LCOR   =        T    correct aug charges
   LPAW   =        T    paw PP
   EAUG   =  605.392
   DEXC   =    0.000
   RMAX   =    1.553    core radius for proj-oper
   RAUG   =    1.300    factor for augmentation sphere
   RDEP   =    1.550    radius for radial grids
   RDEPT  =    1.329    core radius for aug-charge

   Atomic configuration
    4 entries
     n  l   j            E        occ.
     1  0  0.50      -514.6923   2.0000
     2  0  0.50       -23.9615   2.0000
     2  1  0.50        -9.0305   4.0000
     3  2  1.50        -9.5241   0.0000
   Description
     l       E           TYP  RCUT    TYP  RCUT
     0    -23.9615318     23  1.200
     0     -9.5240782     23  1.200
     1     -9.0304911     23  1.520
     1      8.1634956     23  1.520
     2     -9.5240782      7  1.500
  local pseudopotential read in
  partial core-charges read in
  partial kinetic energy density read in
  kinetic energy density of atom read in
  atomic valenz-charges read in
  non local Contribution for L=           0  read in
    real space projection operators read in
  non local Contribution for L=           0  read in
    real space projection operators read in
  non local Contribution for L=           1  read in
    real space projection operators read in
  non local Contribution for L=           1  read in
    real space projection operators read in
    PAW grid and wavefunctions read in

   number of l-projection  operators is LMAX  =           4
   number of lm-projection operators is LMMAX =           8

 POTCAR:    PAW_PBE F 08Apr2002
   VRHFIN =F: s2p5
   LEXCH  = PE
   EATOM  =   659.6475 eV,   48.4827 Ry

   TITEL  = PAW_PBE F 08Apr2002
   LULTRA =        F    use ultrasoft PP ?
   IUNSCR =        1    unscreen: 0-lin 1-nonlin 2-no
   RPACOR =    1.200    partial core radius
   POMASS =   18.998; ZVAL   =    7.000    mass and valenz
   RCORE  =    1.520    outmost cutoff radius
   RWIGS  =    1.500; RWIGS  =    0.794    wigner-seitz radius (au A)
   ENMAX  =  400.000; ENMIN  =  300.000 eV
   ICORE  =        2    local potential
   LCOR   =        T    correct aug charges
   LPAW   =        T    paw PP
   EAUG   =  613.614
   RMAX   =    1.555    core radius for proj-oper
   RAUG   =    1.300    factor for augmentation sphere
   RDEP   =    1.539    radius for radial grids
   RDEPT  =    1.299    core radius for aug-charge

   Atomic configuration
    4 entries
     n  l   j            E        occ.
     1  0  0.50      -663.3661   2.0000
     2  0  0.50       -29.8995   2.0000
     2  1  0.50       -11.1114   5.0000
     3  2  1.50       -10.8847   0.0000
   Description
     l       E           TYP  RCUT    TYP  RCUT
     0    -29.8995018     23  1.200
     0     -9.5240782     23  1.200
     1    -11.1113914     23  1.520
     1      1.3605826     23  1.520
     2    -10.8846608      7  1.500
  local pseudopotential read in
  partial core-charges read in
  partial kinetic energy density read in
  atomic valenz-charges read in
  non local Contribution for L=           0  read in
    real space projection operators read in
  non local Contribution for L=           0  read in
    real space projection operators read in
  non local Contribution for L=           1  read in
    real space projection operators read in
  non local Contribution for L=           1  read in
    real space projection operators read in
    PAW grid and wavefunctions read in

   number of l-projection  operators is LMAX  =           4
   number of lm-projection operators is LMMAX =           8

 -----------------------------------------------------------------------------
|                                                                             |
|               ----> ADVICE to this user running VASP <----                  |
|                                                                             |
|     You have a (more or less) 'large supercell' and for larger cells it     |
|     might be more efficient to use real-space projection operators.         |
|     Therefore, try LREAL= Auto in the INCAR file.                           |
|     Mind: For very accurate calculation, you might also keep the            |
|     reciprocal projection scheme (i.e. LREAL=.FALSE.).                      |
|                                                                             |
 -----------------------------------------------------------------------------

 -----------------------------------------------------------------------------
|                                                                             |
|               ----> ADVICE to this user running VASP <----                  |
|                                                                             |
|     You enforced a specific xc type in the INCAR file but a different       |
|     type was found in the POTCAR file.                                      |
|     I HOPE YOU KNOW WHAT YOU ARE DOING!                                     |
|                                                                             |
 -----------------------------------------------------------------------------

  PAW_PBE Ba_sv 06Sep2000               :
 energy of atom  1       EATOM= -700.8560
 kinetic energy error for atom=    0.0002 (will be added to EATOM!!)
  PAW_PBE O 08Apr2002                   :
 energy of atom  2       EATOM= -432.3788
 kinetic energy error for atom=    0.0105 (will be added to EATOM!!)
  PAW_PBE F 08Apr2002                   :
 energy of atom  3       EATOM= -659.6475
 kinetic energy error for atom=    0.0162 (will be added to EATOM!!)


 POSCAR: Ba8 O2 F12
  positions in direct lattice
  No initial velocities read in
 exchange correlation table for  LEXCH =       14
   RHO(1)=    0.500       N(1)  =     2000
   RHO(2)=  100.500       N(2)  =     4000



--------------------------------------------------------------------------------------------------------


 ion  position               nearest neighbor table
   1  0.254  0.000  0.293-  10 2.57  13 2.63  22 2.69  21 2.69  14 2.70  11 2.76  12 2.76   7 4.08
                             6 4.08   4 4.31   3 4.38   3 4.38   2 4.38   2 4.38   8 4.41   8 4.41
   2  0.500  0.754  0.793-   9 2.57  14 2.63  16 2.69  11 2.69  13 2.70  21 2.76  17 2.76   8 4.08
                             5 4.08   3 4.31   4 4.38   1 4.38   1 4.38   4 4.38   7 4.41   7 4.41
   3  0.500  0.246  0.793-   9 2.57  14 2.63  15 2.69  12 2.69  13 2.70  22 2.76  18 2.76   8 4.08
                             5 4.08   2 4.31   1 4.38   4 4.38   1 4.38   4 4.38   6 4.41   6 4.41
   4  0.746  0.000  0.293-  10 2.57  13 2.63  18 2.69  17 2.69  14 2.70  16 2.76  15 2.76   7 4.08
                             6 4.08   1 4.31   2 4.38   3 4.38   2 4.38   3 4.38   5 4.41   5 4.41
   5  0.754  0.500  0.207-   9 2.57  19 2.63  15 2.69  16 2.69  20 2.70  17 2.76  18 2.76   2 4.08
                             3 4.08   8 4.31   7 4.38   7 4.38   6 4.38   6 4.38   4 4.41   4 4.41
   6  0.000  0.254  0.707-  10 2.57  20 2.63  18 2.69  22 2.69  19 2.70  12 2.76  15 2.76   1 4.08
                             4 4.08   7 4.31   8 4.38   5 4.38   5 4.38   8 4.38   3 4.41   3 4.41
   7  0.000  0.746  0.707-  10 2.57  20 2.63  17 2.69  21 2.69  19 2.70  11 2.76  16 2.76   4 4.08
                             1 4.08   6 4.31   5 4.38   8 4.38   5 4.38   8 4.38   2 4.41   2 4.41
   8  0.246  0.500  0.207-   9 2.57  19 2.63  12 2.69  11 2.69  20 2.70  21 2.76  22 2.76   3 4.08
                             2 4.08   5 4.31   6 4.38   7 4.38   6 4.38   7 4.38   1 4.41   1 4.41
   9  0.500  0.500  0.000-   2 2.57   3 2.57   5 2.57   8 2.57
  10  0.000  0.000  0.500-   1 2.57   4 2.57   6 2.57   7 2.57
  11  0.278  0.722  0.500-   2 2.69   8 2.69   7 2.76   1 2.76
  12  0.278  0.278  0.500-   8 2.69   3 2.69   6 2.76   1 2.76
  13  0.500  0.000  0.533-   4 2.63   1 2.63   3 2.70   2 2.70
  14  0.500  0.000  0.033-   3 2.63   2 2.63   1 2.70   4 2.70
  15  0.722  0.278  0.500-   3 2.69   5 2.69   4 2.76   6 2.76
  16  0.722  0.722  0.500-   2 2.69   5 2.69   4 2.76   7 2.76
  17  0.778  0.778  0.000-   7 2.69   4 2.69   5 2.76   2 2.76
  18  0.778  0.222  0.000-   4 2.69   6 2.69   5 2.76   3 2.76
  19  0.000  0.500  0.967-   5 2.63   8 2.63   7 2.70   6 2.70
  20  0.000  0.500  0.467-   6 2.63   7 2.63   5 2.70   8 2.70
  21  0.222  0.778  0.000-   1 2.69   7 2.69   2 2.76   8 2.76
  22  0.222  0.222  0.000-   1 2.69   6 2.69   3 2.76   8 2.76


IMPORTANT INFORMATION: All symmetrisations will be switched off!
NOSYMM: (Re-)initialisation of all symmetry stuff for point group C_1.


----------------------------------------------------------------------------------------

                                     Primitive cell

  volume of cell :     481.2288

  direct lattice vectors                    reciprocal lattice vectors
     8.747874680  0.000000000  0.000000000     0.114313480 -0.000000000  0.000000000
     0.000000000  8.747874680  0.000000000     0.000000000  0.114313480  0.000000000
     0.000000000  0.000000000  6.288491350    -0.000000000 -0.000000000  0.159020653

  length of vectors
     8.747874680  8.747874680  6.288491350     0.114313480  0.114313480  0.159020653

  position of ions in fractional coordinates (direct lattice)
     0.253921720  0.000000000  0.293058310
     0.500000000  0.753921720  0.793058310
     0.500000000  0.246078280  0.793058310
     0.746078280  0.000000000  0.293058310
     0.753921720  0.500000000  0.206941690
     0.000000000  0.253921720  0.706941690
     0.000000000  0.746078280  0.706941690
     0.246078280  0.500000000  0.206941690
     0.500000000  0.500000000  0.000000000
     0.000000000  0.000000000  0.500000000
     0.277839250  0.722160750  0.500000000
     0.277839250  0.277839250  0.500000000
     0.500000000  0.000000000  0.532766200
     0.500000000  0.000000000  0.032766200
     0.722160750  0.277839250  0.500000000
     0.722160750  0.722160750  0.500000000
     0.777839250  0.777839250  0.000000000
     0.777839250  0.222160750  1.000000000
     0.000000000  0.500000000  0.967233800
     0.000000000  0.500000000  0.467233800
     0.222160750  0.777839250  0.000000000
     0.222160750  0.222160750  0.000000000

  ion indices of the primitive-cell ions
   primitive index   ion index
                 1           1
                 2           2
                 3           3
                 4           4
                 5           5
                 6           6
                 7           7
                 8           8
                 9           9
                10          10
                11          11
                12          12
                13          13
                14          14
                15          15
                16          16
                17          17
                18          18
                19          19
                20          20
                21          21
                22          22

----------------------------------------------------------------------------------------



 KPOINTS: pymatgen with grid density = 6000 / numb

Automatic generation of k-mesh.
 Grid dimensions read from file:
 generate k-points for:    5    5    8

 Generating k-lattice:

  Cartesian coordinates                     Fractional coordinates (reciprocal lattice)
     0.022862696 -0.000000000  0.000000000     0.200000000 -0.000000000  0.000000000
     0.000000000  0.022862696  0.000000000     0.000000000  0.200000000  0.000000000
    -0.000000000 -0.000000000  0.019877582    -0.000000000  0.000000000  0.125000000

  Length of vectors
     0.022862696  0.022862696  0.019877582

  Shift w.r.t. Gamma in fractional coordinates (k-lattice)
     0.000000000  0.000000000  0.000000000

 TETIRR: Found    598 inequivalent tetrahedra from     1200

 Subroutine IBZKPT returns following result:
 ===========================================

 Found    101 irreducible k-points:

 Following reciprocal coordinates:
            Coordinates               Weight
  0.000000  0.000000  0.000000      1.000000
  0.200000  0.000000  0.000000      2.000000
  0.000000  0.200000  0.000000      2.000000
  0.400000  0.000000  0.000000      2.000000
  0.000000  0.400000  0.000000      2.000000
  0.200000  0.200000  0.000000      2.000000
 -0.200000  0.200000  0.000000      2.000000
  0.400000  0.200000  0.000000      2.000000
 -0.200000  0.400000  0.000000      2.000000
 -0.400000  0.200000  0.000000      2.000000
  0.200000  0.400000  0.000000      2.000000
  0.400000  0.400000  0.000000      2.000000
 -0.400000  0.400000  0.000000      2.000000
  0.000000  0.000000  0.125000      2.000000
  0.200000  0.000000  0.125000      2.000000
  0.000000  0.200000  0.125000      2.000000
 -0.200000  0.000000  0.125000      2.000000
  0.000000 -0.200000  0.125000      2.000000
  0.400000  0.000000  0.125000      2.000000
  0.000000  0.400000  0.125000      2.000000
 -0.400000  0.000000  0.125000      2.000000
  0.000000 -0.400000  0.125000      2.000000
  0.200000  0.200000  0.125000      2.000000
 -0.200000  0.200000  0.125000      2.000000
 -0.200000 -0.200000  0.125000      2.000000
  0.200000 -0.200000  0.125000      2.000000
  0.400000  0.200000  0.125000      2.000000
 -0.200000  0.400000  0.125000      2.000000
 -0.400000 -0.200000  0.125000      2.000000
  0.200000 -0.400000  0.125000      2.000000
 -0.400000  0.200000 -0.125000      2.000000
  0.200000  0.400000 -0.125000      2.000000
  0.400000 -0.200000 -0.125000      2.000000
 -0.200000 -0.400000 -0.125000      2.000000
  0.400000  0.400000  0.125000      2.000000
 -0.400000  0.400000  0.125000      2.000000
 -0.400000 -0.400000  0.125000      2.000000
  0.400000 -0.400000  0.125000      2.000000
  0.000000  0.000000  0.250000      2.000000
  0.200000  0.000000  0.250000      2.000000
  0.000000  0.200000  0.250000      2.000000
 -0.200000  0.000000  0.250000      2.000000
  0.000000 -0.200000  0.250000      2.000000
  0.400000  0.000000  0.250000      2.000000
  0.000000  0.400000  0.250000      2.000000
 -0.400000  0.000000  0.250000      2.000000
  0.000000 -0.400000  0.250000      2.000000
  0.200000  0.200000  0.250000      2.000000
 -0.200000  0.200000  0.250000      2.000000
 -0.200000 -0.200000  0.250000      2.000000
  0.200000 -0.200000  0.250000      2.000000
  0.400000  0.200000  0.250000      2.000000
 -0.200000  0.400000  0.250000      2.000000
 -0.400000 -0.200000  0.250000      2.000000
  0.200000 -0.400000  0.250000      2.000000
 -0.400000  0.200000 -0.250000      2.000000
  0.200000  0.400000 -0.250000      2.000000
  0.400000 -0.200000 -0.250000      2.000000
 -0.200000 -0.400000 -0.250000      2.000000
  0.400000  0.400000  0.250000      2.000000
 -0.400000  0.400000  0.250000      2.000000
 -0.400000 -0.400000  0.250000      2.000000
  0.400000 -0.400000  0.250000      2.000000
  0.000000  0.000000  0.375000      2.000000
  0.200000  0.000000  0.375000      2.000000
  0.000000  0.200000  0.375000      2.000000
 -0.200000  0.000000  0.375000      2.000000
  0.000000 -0.200000  0.375000      2.000000
  0.400000  0.000000  0.375000      2.000000
  0.000000  0.400000  0.375000      2.000000
 -0.400000  0.000000  0.375000      2.000000
  0.000000 -0.400000  0.375000      2.000000
  0.200000  0.200000  0.375000      2.000000
 -0.200000  0.200000  0.375000      2.000000
 -0.200000 -0.200000  0.375000      2.000000
  0.200000 -0.200000  0.375000      2.000000
  0.400000  0.200000  0.375000      2.000000
 -0.200000  0.400000  0.375000      2.000000
 -0.400000 -0.200000  0.375000      2.000000
  0.200000 -0.400000  0.375000      2.000000
 -0.400000  0.200000 -0.375000      2.000000
  0.200000  0.400000 -0.375000      2.000000
  0.400000 -0.200000 -0.375000      2.000000
 -0.200000 -0.400000 -0.375000      2.000000
  0.400000  0.400000  0.375000      2.000000
 -0.400000  0.400000  0.375000      2.000000
 -0.400000 -0.400000  0.375000      2.000000
  0.400000 -0.400000  0.375000      2.000000
  0.000000  0.000000  0.500000      1.000000
  0.200000  0.000000  0.500000      2.000000
  0.000000  0.200000  0.500000      2.000000
  0.400000  0.000000  0.500000      2.000000
  0.000000  0.400000  0.500000      2.000000
  0.200000  0.200000  0.500000      2.000000
 -0.200000  0.200000  0.500000      2.000000
  0.400000  0.200000  0.500000      2.000000
 -0.200000  0.400000  0.500000      2.000000
 -0.400000  0.200000  0.500000      2.000000
  0.200000  0.400000  0.500000      2.000000
  0.400000  0.400000  0.500000      2.000000
 -0.400000  0.400000  0.500000      2.000000

 Following cartesian coordinates:
            Coordinates               Weight
  0.000000  0.000000  0.000000      1.000000
  0.022863  0.000000  0.000000      2.000000
  0.000000  0.022863  0.000000      2.000000
  0.045725  0.000000  0.000000      2.000000
  0.000000  0.045725  0.000000      2.000000
  0.022863  0.022863  0.000000      2.000000
 -0.022863  0.022863  0.000000      2.000000
  0.045725  0.022863  0.000000      2.000000
 -0.022863  0.045725  0.000000      2.000000
 -0.045725  0.022863  0.000000      2.000000
  0.022863  0.045725  0.000000      2.000000
  0.045725  0.045725  0.000000      2.000000
 -0.045725  0.045725  0.000000      2.000000
  0.000000  0.000000  0.019878      2.000000
  0.022863  0.000000  0.019878      2.000000
  0.000000  0.022863  0.019878      2.000000
 -0.022863  0.000000  0.019878      2.000000
  0.000000 -0.022863  0.019878      2.000000
  0.045725  0.000000  0.019878      2.000000
  0.000000  0.045725  0.019878      2.000000
 -0.045725  0.000000  0.019878      2.000000
  0.000000 -0.045725  0.019878      2.000000
  0.022863  0.022863  0.019878      2.000000
 -0.022863  0.022863  0.019878      2.000000
 -0.022863 -0.022863  0.019878      2.000000
  0.022863 -0.022863  0.019878      2.000000
  0.045725  0.022863  0.019878      2.000000
 -0.022863  0.045725  0.019878      2.000000
 -0.045725 -0.022863  0.019878      2.000000
  0.022863 -0.045725  0.019878      2.000000
 -0.045725  0.022863 -0.019878      2.000000
  0.022863  0.045725 -0.019878      2.000000
  0.045725 -0.022863 -0.019878      2.000000
 -0.022863 -0.045725 -0.019878      2.000000
  0.045725  0.045725  0.019878      2.000000
 -0.045725  0.045725  0.019878      2.000000
 -0.045725 -0.045725  0.019878      2.000000
  0.045725 -0.045725  0.019878      2.000000
  0.000000  0.000000  0.039755      2.000000
  0.022863  0.000000  0.039755      2.000000
  0.000000  0.022863  0.039755      2.000000
 -0.022863  0.000000  0.039755      2.000000
  0.000000 -0.022863  0.039755      2.000000
  0.045725  0.000000  0.039755      2.000000
  0.000000  0.045725  0.039755      2.000000
 -0.045725  0.000000  0.039755      2.000000
  0.000000 -0.045725  0.039755      2.000000
  0.022863  0.022863  0.039755      2.000000
 -0.022863  0.022863  0.039755      2.000000
 -0.022863 -0.022863  0.039755      2.000000
  0.022863 -0.022863  0.039755      2.000000
  0.045725  0.022863  0.039755      2.000000
 -0.022863  0.045725  0.039755      2.000000
 -0.045725 -0.022863  0.039755      2.000000
  0.022863 -0.045725  0.039755      2.000000
 -0.045725  0.022863 -0.039755      2.000000
  0.022863  0.045725 -0.039755      2.000000
  0.045725 -0.022863 -0.039755      2.000000
 -0.022863 -0.045725 -0.039755      2.000000
  0.045725  0.045725  0.039755      2.000000
 -0.045725  0.045725  0.039755      2.000000
 -0.045725 -0.045725  0.039755      2.000000
  0.045725 -0.045725  0.039755      2.000000
  0.000000  0.000000  0.059633      2.000000
  0.022863  0.000000  0.059633      2.000000
  0.000000  0.022863  0.059633      2.000000
 -0.022863  0.000000  0.059633      2.000000
  0.000000 -0.022863  0.059633      2.000000
  0.045725  0.000000  0.059633      2.000000
  0.000000  0.045725  0.059633      2.000000
 -0.045725  0.000000  0.059633      2.000000
  0.000000 -0.045725  0.059633      2.000000
  0.022863  0.022863  0.059633      2.000000
 -0.022863  0.022863  0.059633      2.000000
 -0.022863 -0.022863  0.059633      2.000000
  0.022863 -0.022863  0.059633      2.000000
  0.045725  0.022863  0.059633      2.000000
 -0.022863  0.045725  0.059633      2.000000
 -0.045725 -0.022863  0.059633      2.000000
  0.022863 -0.045725  0.059633      2.000000
 -0.045725  0.022863 -0.059633      2.000000
  0.022863  0.045725 -0.059633      2.000000
  0.045725 -0.022863 -0.059633      2.000000
 -0.022863 -0.045725 -0.059633      2.000000
  0.045725  0.045725  0.059633      2.000000
 -0.045725  0.045725  0.059633      2.000000
 -0.045725 -0.045725  0.059633      2.000000
  0.045725 -0.045725  0.059633      2.000000
  0.000000  0.000000  0.079510      1.000000
  0.022863  0.000000  0.079510      2.000000
  0.000000  0.022863  0.079510      2.000000
  0.045725  0.000000  0.079510      2.000000
  0.000000  0.045725  0.079510      2.000000
  0.022863  0.022863  0.079510      2.000000
 -0.022863  0.022863  0.079510      2.000000
  0.045725  0.022863  0.079510      2.000000
 -0.022863  0.045725  0.079510      2.000000
 -0.045725  0.022863  0.079510      2.000000
  0.022863  0.045725  0.079510      2.000000
  0.045725  0.045725  0.079510      2.000000
 -0.045725  0.045725  0.079510      2.000000



--------------------------------------------------------------------------------------------------------




 Dimension of arrays:
   k-points           NKPTS =    101   k-points in BZ     NKDIM =    101   number of bands    NBANDS=     96
   number of dos      NEDOS =    301   number of ions     NIONS =     22
   non local maximal  LDIM  =      6   non local SUM 2l+1 LMDIM =     18
   total plane-waves  NPLWV = 345600
   max r-space proj   IRMAX =      1   max aug-charges    IRDMAX=  45149
   dimension x,y,z NGX =    80 NGY =   80 NGZ =   54
   dimension x,y,z NGXF=   160 NGYF=  160 NGZF=  108
   support grid    NGXF=   160 NGYF=  160 NGZF=  108
   ions per type =               8   2  12
   NGX,Y,Z   is equivalent  to a cutoff of  15.20, 15.20, 14.28 a.u.
   NGXF,Y,Z  is equivalent  to a cutoff of  30.41, 30.41, 28.55 a.u.

 SYSTEM =  unknown system
 POSCAR =  Ba8 O2 F12

 Startparameter for this run:
   NWRITE =      2    write-flag & timer
   PREC   = accura    normal or accurate (medium, high low for compatibility)
   ISTART =      1    job   : 0-new  1-cont  2-samecut
   ICHARG =      0    charge: 1-file 2-atom 10-const
   ISPIN  =      2    spin polarized calculation?
   LNONCOLLINEAR =      F non collinear calculations
   LSORBIT =      F    spin-orbit coupling
   INIWAV =      1    electr: 0-lowe 1-rand  2-diag
   LASPH  =      T    aspherical Exc in radial PAW
 Electronic Relaxation 1
   ENCUT  =  680.0 eV  49.98 Ry    7.07 a.u.  18.60 18.60 13.37*2*pi/ulx,y,z
   ENINI  =  680.0     initial cutoff
   ENAUG  = 1360.0 eV  augmentation charge cutoff
   NELM   =    200;   NELMIN=  2; NELMDL=  0     # of ELM steps
   EDIFF  = 0.1E-06   stopping-criterion for ELM
   LREAL  =      F    real-space projection
   NLSPLINE    = F    spline interpolate recip. space projectors
   LCOMPAT=      F    compatible to vasp.4.4
   GGA_COMPAT  = T    GGA compatible to vasp.4.4-vasp.4.6
   LMAXPAW     = -100 max onsite density
   LMAXMIX     =    4 max onsite mixed and CHGCAR
   VOSKOWN=      0    Vosko Wilk Nusair interpolation
   ROPT   =    0.00000   0.00000   0.00000
 Ionic relaxation
   EDIFFG = 0.1E-05   stopping-criterion for IOM
   NSW    =      0    number of steps for IOM
   NBLOCK =      1;   KBLOCK =      1    inner block; outer block
   IBRION =     -1    ionic relax: 0-MD 1-quasi-New 2-CG
   NFREE  =      1    steps in history (QN), initial steepest desc. (CG)
   ISIF   =      2    stress and relaxation
   IWAVPR =     10    prediction:  0-non 1-charg 2-wave 3-comb
   ISYM   =      0    0-nonsym 1-usesym 2-fastsym
   LCORR  =      T    Harris-Foulkes like correction to forces

   POTIM  = 0.5000    time-step for ionic-motion
   TEIN   =    0.0    initial temperature
   TEBEG  =    0.0;   TEEND  =   0.0 temperature during run
   SMASS  =  -3.00    Nose mass-parameter (am)
   estimated Nose-frequenzy (Omega)   =  0.10E-29 period in steps = 0.13E+47 mass=  -0.175E-26a.u.
   SCALEE = 1.0000    scale energy and forces
   NPACO  =    256;   APACO  = 10.0  distance and # of slots for P.C.
   PSTRESS=    0.0 pullay stress

  Mass of Ions in am
   POMASS = 137.33 16.00 19.00
  Ionic Valenz
   ZVAL   =  10.00  6.00  7.00
  Atomic Wigner-Seitz radii
   RWIGS  =  -1.00 -1.00 -1.00
  virtual crystal weights
   VCA    =   1.00  1.00  1.00
   NELECT =     176.0000    total number of electrons
   NUPDOWN=      -1.0000    fix difference up-down

 DOS related values:
   EMIN   =  10.00;   EMAX   =-10.00  energy-range for DOS
   EFERMI =   0.00
   ISMEAR =    -5;   SIGMA  =   0.20  broadening in eV -4-tet -1-fermi 0-gaus

 Electronic relaxation 2 (details)
   IALGO  =     38    algorithm
   LDIAG  =      T    sub-space diagonalisation (order eigenvalues)
   LSUBROT=      F    optimize rotation matrix (better conditioning)
   TURBO    =      0    0=normal 1=particle mesh
   IRESTART =      0    0=no restart 2=restart with 2 vectors
   NREBOOT  =      0    no. of reboots
   NMIN     =      0    reboot dimension
   EREF     =   0.00    reference energy to select bands
   IMIX   =      4    mixing-type and parameters
     AMIX     =   0.40;   BMIX     =  1.00
     AMIX_MAG =   1.60;   BMIX_MAG =  1.00
     AMIN     =   0.10
     WC   =   100.;   INIMIX=   1;  MIXPRE=   1;  MAXMIX= -45

 Intra band minimization:
   WEIMIN = 0.0000     energy-eigenvalue tresh-hold
   EBREAK =  0.26E-09  absolut break condition
   DEPER  =   0.30     relativ break condition

   TIME   =   0.40     timestep for ELM

  volume/ion in A,a.u.               =      21.87       147.61
  Fermi-wavevector in a.u.,A,eV,Ry     =   1.170744  2.212385 18.648703  1.370641
  Thomas-Fermi vector in A             =   2.307198

 Write flags
   LWAVE        =      T    write WAVECAR
   LDOWNSAMPLE  =      F    k-point downsampling of WAVECAR
   LCHARG       =      F    write CHGCAR
   LVTOT        =      T    write LOCPOT, total local potential
   LVHAR        =      F    write LOCPOT, Hartree potential only
   LELF         =      F    write electronic localiz. function (ELF)
   LORBIT       =     11    0 simple, 1 ext, 2 COOP (PROOUT), +10 PAW based schemes


 Dipole corrections
   LMONO  =      F    monopole corrections only (constant potential shift)
   LDIPOL =      F    correct potential (dipole corrections)
   IDIPOL =      0    1-x, 2-y, 3-z, 4-all directions
   EPSILON=  1.0000000 bulk dielectric constant

 Exchange correlation treatment:
   GGA     =    PS    GGA type
   LEXCH   =    14    internal setting for exchange type
   LIBXC   =     F    Libxc
   VOSKOWN =     0    Vosko Wilk Nusair interpolation
   LHFCALC =     F    Hartree Fock is set to
   LHFONE  =     F    Hartree Fock one center treatment
   AEXX    =    0.0000 exact exchange contribution

 Linear response parameters
   LEPSILON=     F    determine dielectric tensor
   LRPA    =     F    only Hartree local field effects (RPA)
   LNABLA  =     F    use nabla operator in PAW spheres
   LVEL    =     F    velocity operator in full k-point grid
   CSHIFT  =0.1000    complex shift for real part using Kramers Kronig
   OMEGAMAX=  -1.0    maximum frequency
   DEG_THRESHOLD= 0.2000000E-02 threshold for treating states as degnerate
   RTIME   =   -0.100 relaxation time in fs
  (WPLASMAI=    0.000 imaginary part of plasma frequency in eV, 0.658/RTIME)
   DFIELD  = 0.0000000 0.0000000 0.0000000 field for delta impulse in time

  Optional k-point grid parameters
   LKPOINTS_OPT  =     F    use optional k-point grid
   KPOINTS_OPT_MODE=     1    mode for optional k-point grid

 Orbital magnetization related:
   ORBITALMAG=     F  switch on orbital magnetization
   LCHIMAG   =     F  perturbation theory with respect to B field
   DQ        =  0.001000  dq finite difference perturbation B field
   LLRAUG    =     F  two centre corrections for induced B field



--------------------------------------------------------------------------------------------------------


 Static calculation
 charge density and potential will be updated during run
 spin polarized calculation
 Variant of blocked Davidson
 Davidson routine will perform the subspace rotation
 perform sub-space diagonalisation
    after iterative eigenvector-optimisation
 modified Broyden-mixing scheme, WC =      100.0
 initial mixing is a Kerker type mixing with AMIX =  0.4000 and BMIX =      1.0000
 Hartree-type preconditioning will be used
 using additional bands            8
 reciprocal scheme for non local part
 use partial core corrections
 calculate Harris-corrections to forces   (improved forces if not selfconsistent)
 use gradient corrections
 use of overlap-Matrix (Vanderbilt PP)
 Fermi weights with tetrahedron method with Bloechl corrections


--------------------------------------------------------------------------------------------------------


  energy-cutoff  :      680.00
  volume of cell :      481.23
      direct lattice vectors                 reciprocal lattice vectors
     8.747874680  0.000000000  0.000000000     0.114313480 -0.000000000  0.000000000
     0.000000000  8.747874680  0.000000000     0.000000000  0.114313480  0.000000000
     0.000000000  0.000000000  6.288491350    -0.000000000 -0.000000000  0.159020653

  length of vectors
     8.747874680  8.747874680  6.288491350     0.114313480  0.114313480  0.159020653



 old parameters found on file WAVECAR:
  energy-cutoff  :      680.00
  volume of cell :      481.23
      direct lattice vectors                 reciprocal lattice vectors
     8.747874680  0.000000000  0.000000000     0.114313480 -0.000000000  0.000000000
     0.000000000  8.747874680  0.000000000     0.000000000  0.114313480  0.000000000
     0.000000000  0.000000000  6.288491350    -0.000000000 -0.000000000  0.159020653

  length of vectors


 k-points in units of 2pi/SCALE and weight: pymatgen with grid density = 6000 / numb
   0.00000000  0.00000000  0.00000000       0.005
   0.02286270  0.00000000  0.00000000       0.010
   0.00000000  0.02286270  0.00000000       0.010
   0.04572539  0.00000000  0.00000000       0.010
   0.00000000  0.04572539  0.00000000       0.010
   0.02286270  0.02286270  0.00000000       0.010
  -0.02286270  0.02286270  0.00000000       0.010
   0.04572539  0.02286270  0.00000000       0.010
  -0.02286270  0.04572539  0.00000000       0.010
  -0.04572539  0.02286270  0.00000000       0.010
   0.02286270  0.04572539  0.00000000       0.010
   0.04572539  0.04572539  0.00000000       0.010
  -0.04572539  0.04572539  0.00000000       0.010
   0.00000000  0.00000000  0.01987758       0.010
   0.02286270  0.00000000  0.01987758       0.010
   0.00000000  0.02286270  0.01987758       0.010
  -0.02286270  0.00000000  0.01987758       0.010
   0.00000000 -0.02286270  0.01987758       0.010
   0.04572539  0.00000000  0.01987758       0.010
   0.00000000  0.04572539  0.01987758       0.010
  -0.04572539  0.00000000  0.01987758       0.010
   0.00000000 -0.04572539  0.01987758       0.010
   0.02286270  0.02286270  0.01987758       0.010
  -0.02286270  0.02286270  0.01987758       0.010
  -0.02286270 -0.02286270  0.01987758       0.010
   0.02286270 -0.02286270  0.01987758       0.010
   0.04572539  0.02286270  0.01987758       0.010
  -0.02286270  0.04572539  0.01987758       0.010
  -0.04572539 -0.02286270  0.01987758       0.010
   0.02286270 -0.04572539  0.01987758       0.010
  -0.04572539  0.02286270 -0.01987758       0.010
   0.02286270  0.04572539 -0.01987758       0.010
   0.04572539 -0.02286270 -0.01987758       0.010
  -0.02286270 -0.04572539 -0.01987758       0.010
   0.04572539  0.04572539  0.01987758       0.010
  -0.04572539  0.04572539  0.01987758       0.010
  -0.04572539 -0.04572539  0.01987758       0.010
   0.04572539 -0.04572539  0.01987758       0.010
   0.00000000  0.00000000  0.03975516       0.010
   0.02286270  0.00000000  0.03975516       0.010
   0.00000000  0.02286270  0.03975516       0.010
  -0.02286270  0.00000000  0.03975516       0.010
   0.00000000 -0.02286270  0.03975516       0.010
   0.04572539  0.00000000  0.03975516       0.010
   0.00000000  0.04572539  0.03975516       0.010
  -0.04572539  0.00000000  0.03975516       0.010
   0.00000000 -0.04572539  0.03975516       0.010
   0.02286270  0.02286270  0.03975516       0.010
  -0.02286270  0.02286270  0.03975516       0.010
  -0.02286270 -0.02286270  0.03975516       0.010
   0.02286270 -0.02286270  0.03975516       0.010
   0.04572539  0.02286270  0.03975516       0.010
  -0.02286270  0.04572539  0.03975516       0.010
  -0.04572539 -0.02286270  0.03975516       0.010
   0.02286270 -0.04572539  0.03975516       0.010
  -0.04572539  0.02286270 -0.03975516       0.010
   0.02286270  0.04572539 -0.03975516       0.010
   0.04572539 -0.02286270 -0.03975516       0.010
  -0.02286270 -0.04572539 -0.03975516       0.010
   0.04572539  0.04572539  0.03975516       0.010
  -0.04572539  0.04572539  0.03975516       0.010
  -0.04572539 -0.04572539  0.03975516       0.010
   0.04572539 -0.04572539  0.03975516       0.010
   0.00000000  0.00000000  0.05963274       0.010
   0.02286270  0.00000000  0.05963274       0.010
   0.00000000  0.02286270  0.05963274       0.010
  -0.02286270  0.00000000  0.05963274       0.010
   0.00000000 -0.02286270  0.05963274       0.010
   0.04572539  0.00000000  0.05963274       0.010
   0.00000000  0.04572539  0.05963274       0.010
  -0.04572539  0.00000000  0.05963274       0.010
   0.00000000 -0.04572539  0.05963274       0.010
   0.02286270  0.02286270  0.05963274       0.010
  -0.02286270  0.02286270  0.05963274       0.010
  -0.02286270 -0.02286270  0.05963274       0.010
   0.02286270 -0.02286270  0.05963274       0.010
   0.04572539  0.02286270  0.05963274       0.010
  -0.02286270  0.04572539  0.05963274       0.010
  -0.04572539 -0.02286270  0.05963274       0.010
   0.02286270 -0.04572539  0.05963274       0.010
  -0.04572539  0.02286270 -0.05963274       0.010
   0.02286270  0.04572539 -0.05963274       0.010
   0.04572539 -0.02286270 -0.05963274       0.010
  -0.02286270 -0.04572539 -0.05963274       0.010
   0.04572539  0.04572539  0.05963274       0.010
  -0.04572539  0.04572539  0.05963274       0.010
  -0.04572539 -0.04572539  0.05963274       0.010
   0.04572539 -0.04572539  0.05963274       0.010
   0.00000000  0.00000000  0.07951033       0.005
   0.02286270  0.00000000  0.07951033       0.010
   0.00000000  0.02286270  0.07951033       0.010
   0.04572539  0.00000000  0.07951033       0.010
   0.00000000  0.04572539  0.07951033       0.010
   0.02286270  0.02286270  0.07951033       0.010
  -0.02286270  0.02286270  0.07951033       0.010
   0.04572539  0.02286270  0.07951033       0.010
  -0.02286270  0.04572539  0.07951033       0.010
  -0.04572539  0.02286270  0.07951033       0.010
   0.02286270  0.04572539  0.07951033       0.010
   0.04572539  0.04572539  0.07951033       0.010
  -0.04572539  0.04572539  0.07951033       0.010

 k-points in reciprocal lattice and weights: pymatgen with grid density = 6000 / numb
   0.00000000  0.00000000  0.00000000       0.005
   0.20000000  0.00000000  0.00000000       0.010
   0.00000000  0.20000000  0.00000000       0.010
   0.40000000  0.00000000  0.00000000       0.010
   0.00000000  0.40000000  0.00000000       0.010
   0.20000000  0.20000000  0.00000000       0.010
  -0.20000000  0.20000000  0.00000000       0.010
   0.40000000  0.20000000  0.00000000       0.010
  -0.20000000  0.40000000  0.00000000       0.010
  -0.40000000  0.20000000  0.00000000       0.010
   0.20000000  0.40000000  0.00000000       0.010
   0.40000000  0.40000000  0.00000000       0.010
  -0.40000000  0.40000000  0.00000000       0.010
   0.00000000  0.00000000  0.12500000       0.010
   0.20000000  0.00000000  0.12500000       0.010
   0.00000000  0.20000000  0.12500000       0.010
  -0.20000000  0.00000000  0.12500000       0.010
   0.00000000 -0.20000000  0.12500000       0.010
   0.40000000  0.00000000  0.12500000       0.010
   0.00000000  0.40000000  0.12500000       0.010
  -0.40000000  0.00000000  0.12500000       0.010
   0.00000000 -0.40000000  0.12500000       0.010
   0.20000000  0.20000000  0.12500000       0.010
  -0.20000000  0.20000000  0.12500000       0.010
  -0.20000000 -0.20000000  0.12500000       0.010
   0.20000000 -0.20000000  0.12500000       0.010
   0.40000000  0.20000000  0.12500000       0.010
  -0.20000000  0.40000000  0.12500000       0.010
  -0.40000000 -0.20000000  0.12500000       0.010
   0.20000000 -0.40000000  0.12500000       0.010
  -0.40000000  0.20000000 -0.12500000       0.010
   0.20000000  0.40000000 -0.12500000       0.010
   0.40000000 -0.20000000 -0.12500000       0.010
  -0.20000000 -0.40000000 -0.12500000       0.010
   0.40000000  0.40000000  0.12500000       0.010
  -0.40000000  0.40000000  0.12500000       0.010
  -0.40000000 -0.40000000  0.12500000       0.010
   0.40000000 -0.40000000  0.12500000       0.010
   0.00000000  0.00000000  0.25000000       0.010
   0.20000000  0.00000000  0.25000000       0.010
   0.00000000  0.20000000  0.25000000       0.010
  -0.20000000  0.00000000  0.25000000       0.010
   0.00000000 -0.20000000  0.25000000       0.010
   0.40000000  0.00000000  0.25000000       0.010
   0.00000000  0.40000000  0.25000000       0.010
  -0.40000000  0.00000000  0.25000000       0.010
   0.00000000 -0.40000000  0.25000000       0.010
   0.20000000  0.20000000  0.25000000       0.010
  -0.20000000  0.20000000  0.25000000       0.010
  -0.20000000 -0.20000000  0.25000000       0.010
   0.20000000 -0.20000000  0.25000000       0.010
   0.40000000  0.20000000  0.25000000       0.010
  -0.20000000  0.40000000  0.25000000       0.010
  -0.40000000 -0.20000000  0.25000000       0.010
   0.20000000 -0.40000000  0.25000000       0.010
  -0.40000000  0.20000000 -0.25000000       0.010
   0.20000000  0.40000000 -0.25000000       0.010
   0.40000000 -0.20000000 -0.25000000       0.010
  -0.20000000 -0.40000000 -0.25000000       0.010
   0.40000000  0.40000000  0.25000000       0.010
  -0.40000000  0.40000000  0.25000000       0.010
  -0.40000000 -0.40000000  0.25000000       0.010
   0.40000000 -0.40000000  0.25000000       0.010
   0.00000000  0.00000000  0.37500000       0.010
   0.20000000  0.00000000  0.37500000       0.010
   0.00000000  0.20000000  0.37500000       0.010
  -0.20000000  0.00000000  0.37500000       0.010
   0.00000000 -0.20000000  0.37500000       0.010
   0.40000000  0.00000000  0.37500000       0.010
   0.00000000  0.40000000  0.37500000       0.010
  -0.40000000  0.00000000  0.37500000       0.010
   0.00000000 -0.40000000  0.37500000       0.010
   0.20000000  0.20000000  0.37500000       0.010
  -0.20000000  0.20000000  0.37500000       0.010
  -0.20000000 -0.20000000  0.37500000       0.010
   0.20000000 -0.20000000  0.37500000       0.010
   0.40000000  0.20000000  0.37500000       0.010
  -0.20000000  0.40000000  0.37500000       0.010
  -0.40000000 -0.20000000  0.37500000       0.010
   0.20000000 -0.40000000  0.37500000       0.010
  -0.40000000  0.20000000 -0.37500000       0.010
   0.20000000  0.40000000 -0.37500000       0.010
   0.40000000 -0.20000000 -0.37500000       0.010
  -0.20000000 -0.40000000 -0.37500000       0.010
   0.40000000  0.40000000  0.37500000       0.010
  -0.40000000  0.40000000  0.37500000       0.010
  -0.40000000 -0.40000000  0.37500000       0.010
   0.40000000 -0.40000000  0.37500000       0.010
   0.00000000  0.00000000  0.50000000       0.005
   0.20000000  0.00000000  0.50000000       0.010
   0.00000000  0.20000000  0.50000000       0.010
   0.40000000  0.00000000  0.50000000       0.010
   0.00000000  0.40000000  0.50000000       0.010
   0.20000000  0.20000000  0.50000000       0.010
  -0.20000000  0.20000000  0.50000000       0.010
   0.40000000  0.20000000  0.50000000       0.010
  -0.20000000  0.40000000  0.50000000       0.010
  -0.40000000  0.20000000  0.50000000       0.010
   0.20000000  0.40000000  0.50000000       0.010
   0.40000000  0.40000000  0.50000000       0.010
  -0.40000000  0.40000000  0.50000000       0.010

 position of ions in fractional coordinates (direct lattice)
   0.25392172  0.00000000  0.29305831
   0.50000000  0.75392172  0.79305831
   0.50000000  0.24607828  0.79305831
   0.74607828  0.00000000  0.29305831
   0.75392172  0.50000000  0.20694169
   0.00000000  0.25392172  0.70694169
   0.00000000  0.74607828  0.70694169
   0.24607828  0.50000000  0.20694169
   0.50000000  0.50000000  0.00000000
   0.00000000  0.00000000  0.50000000
   0.27783925  0.72216075  0.50000000
   0.27783925  0.27783925  0.50000000
   0.50000000  0.00000000  0.53276620
   0.50000000  0.00000000  0.03276620
   0.72216075  0.27783925  0.50000000
   0.72216075  0.72216075  0.50000000
   0.77783925  0.77783925  0.00000000
   0.77783925  0.22216075  0.00000000
   0.00000000  0.50000000  0.96723380
   0.00000000  0.50000000  0.46723380
   0.22216075  0.77783925  0.00000000
   0.22216075  0.22216075  0.00000000

 position of ions in cartesian coordinates  (Angst):
   2.22127539  0.00000000  1.84289465
   4.37393734  6.59521273  4.98714032
   4.37393734  2.15266195  4.98714032
   6.52659929  0.00000000  1.84289465
   6.59521273  4.37393734  1.30135103
   0.00000000  2.22127539  4.44559670
   0.00000000  6.52659929  4.44559670
   2.15266195  4.37393734  1.30135103
   4.37393734  4.37393734  0.00000000
   0.00000000  0.00000000  3.14424568
   2.43050294  6.31737174  3.14424568
   2.43050294  2.43050294  3.14424568
   4.37393734  0.00000000  3.35029564
   4.37393734  0.00000000  0.20604997
   6.31737174  2.43050294  3.14424568
   6.31737174  6.31737174  3.14424568
   6.80444028  6.80444028  0.00000000
   6.80444028  1.94343440  0.00000000
   0.00000000  4.37393734  6.08244138
   0.00000000  4.37393734  2.93819571
   1.94343440  6.80444028  0.00000000
   1.94343440  1.94343440  0.00000000



--------------------------------------------------------------------------------------------------------


 k-point   1 :   0.0000 0.0000 0.0000  plane waves:   19447
 k-point   2 :   0.2000 0.0000 0.0000  plane waves:   19389
 k-point   3 :   0.0000 0.2000 0.0000  plane waves:   19389
 k-point   4 :   0.4000 0.0000 0.0000  plane waves:   19374
 k-point   5 :   0.0000 0.4000 0.0000  plane waves:   19374
 k-point   6 :   0.2000 0.2000 0.0000  plane waves:   19378
 k-point   7 :  -0.2000 0.2000 0.0000  plane waves:   19378
 k-point   8 :   0.4000 0.2000 0.0000  plane waves:   19383
 k-point   9 :  -0.2000 0.4000 0.0000  plane waves:   19383
 k-point  10 :  -0.4000 0.2000 0.0000  plane waves:   19383
 k-point  11 :   0.2000 0.4000 0.0000  plane waves:   19383
 k-point  12 :   0.4000 0.4000 0.0000  plane waves:   19380
 k-point  13 :  -0.4000 0.4000 0.0000  plane waves:   19380
 k-point  14 :   0.0000 0.0000 0.1250  plane waves:   19403
 k-point  15 :   0.2000 0.0000 0.1250  plane waves:   19378
 k-point  16 :   0.0000 0.2000 0.1250  plane waves:   19378
 k-point  17 :  -0.2000 0.0000 0.1250  plane waves:   19378
 k-point  18 :   0.0000-0.2000 0.1250  plane waves:   19378
 k-point  19 :   0.4000 0.0000 0.1250  plane waves:   19377
 k-point  20 :   0.0000 0.4000 0.1250  plane waves:   19377
 k-point  21 :  -0.4000 0.0000 0.1250  plane waves:   19377
 k-point  22 :   0.0000-0.4000 0.1250  plane waves:   19377
 k-point  23 :   0.2000 0.2000 0.1250  plane waves:   19377
 k-point  24 :  -0.2000 0.2000 0.1250  plane waves:   19377
 k-point  25 :  -0.2000-0.2000 0.1250  plane waves:   19377
 k-point  26 :   0.2000-0.2000 0.1250  plane waves:   19377
 k-point  27 :   0.4000 0.2000 0.1250  plane waves:   19378
 k-point  28 :  -0.2000 0.4000 0.1250  plane waves:   19378
 k-point  29 :  -0.4000-0.2000 0.1250  plane waves:   19378
 k-point  30 :   0.2000-0.4000 0.1250  plane waves:   19378
 k-point  31 :  -0.4000 0.2000-0.1250  plane waves:   19378
 k-point  32 :   0.2000 0.4000-0.1250  plane waves:   19378
 k-point  33 :   0.4000-0.2000-0.1250  plane waves:   19378
 k-point  34 :  -0.2000-0.4000-0.1250  plane waves:   19378
 k-point  35 :   0.4000 0.4000 0.1250  plane waves:   19389
 k-point  36 :  -0.4000 0.4000 0.1250  plane waves:   19389
 k-point  37 :  -0.4000-0.4000 0.1250  plane waves:   19389
 k-point  38 :   0.4000-0.4000 0.1250  plane waves:   19389
 k-point  39 :   0.0000 0.0000 0.2500  plane waves:   19399
 k-point  40 :   0.2000 0.0000 0.2500  plane waves:   19389
 k-point  41 :   0.0000 0.2000 0.2500  plane waves:   19389
 k-point  42 :  -0.2000 0.0000 0.2500  plane waves:   19389
 k-point  43 :   0.0000-0.2000 0.2500  plane waves:   19389
 k-point  44 :   0.4000 0.0000 0.2500  plane waves:   19382
 k-point  45 :   0.0000 0.4000 0.2500  plane waves:   19382
 k-point  46 :  -0.4000 0.0000 0.2500  plane waves:   19382
 k-point  47 :   0.0000-0.4000 0.2500  plane waves:   19382
 k-point  48 :   0.2000 0.2000 0.2500  plane waves:   19393
 k-point  49 :  -0.2000 0.2000 0.2500  plane waves:   19393
 k-point  50 :  -0.2000-0.2000 0.2500  plane waves:   19393
 k-point  51 :   0.2000-0.2000 0.2500  plane waves:   19393
 k-point  52 :   0.4000 0.2000 0.2500  plane waves:   19361
 k-point  53 :  -0.2000 0.4000 0.2500  plane waves:   19361
 k-point  54 :  -0.4000-0.2000 0.2500  plane waves:   19361
 k-point  55 :   0.2000-0.4000 0.2500  plane waves:   19361
 k-point  56 :  -0.4000 0.2000-0.2500  plane waves:   19361
 k-point  57 :   0.2000 0.4000-0.2500  plane waves:   19361
 k-point  58 :   0.4000-0.2000-0.2500  plane waves:   19361
 k-point  59 :  -0.2000-0.4000-0.2500  plane waves:   19361
 k-point  60 :   0.4000 0.4000 0.2500  plane waves:   19375
 k-point  61 :  -0.4000 0.4000 0.2500  plane waves:   19375
 k-point  62 :  -0.4000-0.4000 0.2500  plane waves:   19375
 k-point  63 :   0.4000-0.4000 0.2500  plane waves:   19375
 k-point  64 :   0.0000 0.0000 0.3750  plane waves:   19366
 k-point  65 :   0.2000 0.0000 0.3750  plane waves:   19379
 k-point  66 :   0.0000 0.2000 0.3750  plane waves:   19379
 k-point  67 :  -0.2000 0.0000 0.3750  plane waves:   19379
 k-point  68 :   0.0000-0.2000 0.3750  plane waves:   19379
 k-point  69 :   0.4000 0.0000 0.3750  plane waves:   19378
 k-point  70 :   0.0000 0.4000 0.3750  plane waves:   19378
 k-point  71 :  -0.4000 0.0000 0.3750  plane waves:   19378
 k-point  72 :   0.0000-0.4000 0.3750  plane waves:   19378
 k-point  73 :   0.2000 0.2000 0.3750  plane waves:   19379
 k-point  74 :  -0.2000 0.2000 0.3750  plane waves:   19379
 k-point  75 :  -0.2000-0.2000 0.3750  plane waves:   19379
 k-point  76 :   0.2000-0.2000 0.3750  plane waves:   19379
 k-point  77 :   0.4000 0.2000 0.3750  plane waves:   19362
 k-point  78 :  -0.2000 0.4000 0.3750  plane waves:   19362
 k-point  79 :  -0.4000-0.2000 0.3750  plane waves:   19362
 k-point  80 :   0.2000-0.4000 0.3750  plane waves:   19362
 k-point  81 :  -0.4000 0.2000-0.3750  plane waves:   19362
 k-point  82 :   0.2000 0.4000-0.3750  plane waves:   19362
 k-point  83 :   0.4000-0.2000-0.3750  plane waves:   19362
 k-point  84 :  -0.2000-0.4000-0.3750  plane waves:   19362
 k-point  85 :   0.4000 0.4000 0.3750  plane waves:   19338
 k-point  86 :  -0.4000 0.4000 0.3750  plane waves:   19338
 k-point  87 :  -0.4000-0.4000 0.3750  plane waves:   19338
 k-point  88 :   0.4000-0.4000 0.3750  plane waves:   19338
 k-point  89 :   0.0000 0.0000 0.5000  plane waves:   19426
 k-point  90 :   0.2000 0.0000 0.5000  plane waves:   19388
 k-point  91 :   0.0000 0.2000 0.5000  plane waves:   19388
 k-point  92 :   0.4000 0.0000 0.5000  plane waves:   19350
 k-point  93 :   0.0000 0.4000 0.5000  plane waves:   19350
 k-point  94 :   0.2000 0.2000 0.5000  plane waves:   19372
 k-point  95 :  -0.2000 0.2000 0.5000  plane waves:   19372
 k-point  96 :   0.4000 0.2000 0.5000  plane waves:   19358
 k-point  97 :  -0.2000 0.4000 0.5000  plane waves:   19358
 k-point  98 :  -0.4000 0.2000 0.5000  plane waves:   19358
 k-point  99 :   0.2000 0.4000 0.5000  plane waves:   19358
 k-point 100 :   0.4000 0.4000 0.5000  plane waves:   19330
 k-point 101 :  -0.4000 0.4000 0.5000  plane waves:   19330

 maximum and minimum number of plane-waves per node :      1024      927

 maximum number of plane-waves:     19447
 maximum index in each direction:
   IXMAX=   18   IYMAX=   18   IZMAX=   13
   IXMIN=  -19   IYMIN=  -19   IZMIN=  -13


 parallel 3D FFT for wavefunctions:
    minimum data exchange during FFTs selected (reduces bandwidth)
 parallel 3D FFT for charge:
    minimum data exchange during FFTs selected (reduces bandwidth)


 total amount of memory used by VASP MPI-rank0   158999. kBytes
=======================================================================

   base      :      30000. kBytes
   nonl-proj :      43632. kBytes
   fftplans  :       1706. kBytes
   grid      :       4480. kBytes
   one-center:         62. kBytes
   wavefun   :      79119. kBytes

     INWAV:  cpu time      6.8605: real time      6.9066
 Broyden mixing: mesh for mixing (old mesh)
   NGX = 37   NGY = 37   NGZ = 27
  (NGX  =160   NGY  =160   NGZ  =108)
  gives a total of  36963 points

 charge density for first step will be calculated from the start-wavefunctions


--------------------------------------------------------------------------------------------------------


 Maximum index for augmentation-charges         1468 (set IRDMAX)


--------------------------------------------------------------------------------------------------------


 initial charge from wavefunction
 First call to EWALD:  gamma=   0.226
 Maximum number of real-space cells 3x 3x 3
 Maximum number of reciprocal cells 3x 3x 2

    FEWALD:  cpu time      0.0020: real time      0.0020


--------------------------------------- Iteration      1(   1)  ---------------------------------------


    POTLOK:  cpu time      0.0965: real time      0.0970
    SETDIJ:  cpu time      1.1027: real time      1.1029
     EDDAV:  cpu time     39.1168: real time     39.2030
 BZINTS: Fermi energy:    3.553005;  176.000000 electrons
         Band energy:-0.167288E+04;  BLOECHL correction:   -0.000000
       DOS:  cpu time      0.3434: real time      0.3439
    CHARGE:  cpu time      2.5299: real time      2.5303
    MIXING:  cpu time      0.0035: real time      0.0039
    --------------------------------------------
      LOOP:  cpu time     43.1928: real time     43.2811

 eigenvalue-minimisations  : 40112
 total energy-change (2. order) :-0.1039797E+03  (-0.1884135E+03)
 number of electron     176.0000013 magnetization       0.0000000
 augmentation part        3.8273525 magnetization       0.0000174

 Broyden mixing:
  rms(total) = 0.73449E+00    rms(broyden)= 0.73449E+00
  rms(prec ) = 0.83894E+00
  weight for this iteration     100.00

 Free energy of the ion-electron system (eV)
  ---------------------------------------------------
  alpha Z        PSCENC =       894.86746178
  Ewald energy   TEWEN  =    -10059.86850247
  -Hartree energ DENC   =     -4296.85226547
  -exchange      EXHF   =         0.00000000
  -V(xc)+E(xc)   XCENC  =       724.12232822
  PAW double counting   =     16274.19557140   -16325.22377149
  entropy T*S    EENTRO =         0.00000000
  eigenvalues    EBANDS =     -1672.87593875
  atomic energy  EATOM  =     14357.65540224
  Solvation  Ediel_sol  =         0.00000000
  ---------------------------------------------------
  free energy    TOTEN  =      -103.97971454 eV

  energy without entropy =     -103.97971454  energy(sigma->0) =     -103.97971454


--------------------------------------------------------------------------------------------------------




--------------------------------------- Iteration      1(   2)  ---------------------------------------


    POTLOK:  cpu time      0.1006: real time      0.1226
    SETDIJ:  cpu time      1.1050: real time      1.1052
     EDDAV:  cpu time     45.1617: real time     45.2570
 BZINTS: Fermi energy:    3.575936;  176.000000 electrons
         Band energy:-0.169638E+04;  BLOECHL correction:   -0.000000
       DOS:  cpu time      0.3516: real time      0.3518
    CHARGE:  cpu time      2.5152: real time      2.5156
    MIXING:  cpu time      0.0022: real time      0.0022
    --------------------------------------------
      LOOP:  cpu time     49.2364: real time     49.3544

 eigenvalue-minimisations  : 48608
 total energy-change (2. order) :-0.2537199E+02  (-0.2591921E+02)
 number of electron     176.0000013 magnetization      -0.0000000
 augmentation part        3.5154504 magnetization      -0.0000089

 Broyden mixing:
  rms(total) = 0.70251E+00    rms(broyden)= 0.70251E+00
  rms(prec ) = 0.72297E+00
  weight for this iteration     100.00

 eigenvalues of (default mixing * dielectric matrix)
  average eigenvalue GAMMA=   0.6058
  0.6058

 Free energy of the ion-electron system (eV)
  ---------------------------------------------------
  alpha Z        PSCENC =       894.86746178
  Ewald energy   TEWEN  =    -10059.86850247
  -Hartree energ DENC   =     -4298.97731919
  -exchange      EXHF   =         0.00000000
  -V(xc)+E(xc)   XCENC  =       724.22106148
  PAW double counting   =     16169.49369745   -16220.36377623
  entropy T*S    EENTRO =         0.00000000
  eigenvalues    EBANDS =     -1696.37973240
  atomic energy  EATOM  =     14357.65540224
  Solvation  Ediel_sol  =         0.00000000
  ---------------------------------------------------
  free energy    TOTEN  =      -129.35170734 eV

  energy without entropy =     -129.35170734  energy(sigma->0) =     -129.35170734


--------------------------------------------------------------------------------------------------------




--------------------------------------- Iteration      1(   3)  ---------------------------------------


    POTLOK:  cpu time      0.0957: real time      0.0974
    SETDIJ:  cpu time      1.1021: real time      1.1023
     EDDAV:  cpu time     49.1810: real time     49.2668
 BZINTS: Fermi energy:    3.573134;  176.000000 electrons
         Band energy:-0.169337E+04;  BLOECHL correction:   -0.000000
       DOS:  cpu time      0.3300: real time      0.3301
    CHARGE:  cpu time      2.5229: real time      2.5233
    MIXING:  cpu time      0.0016: real time      0.0016
    --------------------------------------------
      LOOP:  cpu time     53.2333: real time     53.3216

 eigenvalue-minimisations  : 54080
 total energy-change (2. order) :-0.7813567E+00  (-0.8504871E+00)
 number of electron     176.0000013 magnetization      -0.0000000
 augmentation part        3.0964881 magnetization      -0.0000080

 Broyden mixing:
  rms(total) = 0.47688E+00    rms(broyden)= 0.47687E+00
  rms(prec ) = 0.48094E+00
  weight for this iteration     100.00

 eigenvalues of (default mixing * dielectric matrix)
  average eigenvalue GAMMA=   1.4857
  0.9332  2.0381

 Free energy of the ion-electron system (eV)
  ---------------------------------------------------
  alpha Z        PSCENC =       894.86746178
  Ewald energy   TEWEN  =    -10059.86850247
  -Hartree energ DENC   =     -4302.45278275
  -exchange      EXHF   =         0.00000000
  -V(xc)+E(xc)   XCENC  =       724.58894472
  PAW double counting   =     15725.34841138   -15776.89726591
  entropy T*S    EENTRO =         0.00000000
  eigenvalues    EBANDS =     -1693.37473307
  atomic energy  EATOM  =     14357.65540224
  Solvation  Ediel_sol  =         0.00000000
  ---------------------------------------------------
  free energy    TOTEN  =      -130.13306407 eV

  energy without entropy =     -130.13306407  energy(sigma->0) =     -130.13306407


--------------------------------------------------------------------------------------------------------




--------------------------------------- Iteration      1(   4)  ---------------------------------------


    POTLOK:  cpu time      0.0953: real time      0.0976
    SETDIJ:  cpu time      1.1068: real time      1.1070
     EDDAV:  cpu time     44.5293: real time     44.6146
 BZINTS: Fermi energy:    3.563275;  176.000000 electrons
         Band energy:-0.169722E+04;  BLOECHL correction:   -0.000000
       DOS:  cpu time      0.3610: real time      0.3611
    CHARGE:  cpu time      2.5280: real time      2.5285
    MIXING:  cpu time      0.0018: real time      0.0018
    --------------------------------------------
      LOOP:  cpu time     48.6222: real time     48.7105

 eigenvalue-minimisations  : 47232
 total energy-change (2. order) :-0.2566477E-01  (-0.3971395E-01)
 number of electron     176.0000013 magnetization       0.0000000
 augmentation part        3.0586493 magnetization      -0.0000381

 Broyden mixing:
  rms(total) = 0.17356E+00    rms(broyden)= 0.17356E+00
  rms(prec ) = 0.19096E+00
  weight for this iteration     100.00

 eigenvalues of (default mixing * dielectric matrix)
  average eigenvalue GAMMA=   1.3918
  2.4630  1.0315  0.6808

 Free energy of the ion-electron system (eV)
  ---------------------------------------------------
  alpha Z        PSCENC =       894.86746178
  Ewald energy   TEWEN  =    -10059.86850247
  -Hartree energ DENC   =     -4298.95288371
  -exchange      EXHF   =         0.00000000
  -V(xc)+E(xc)   XCENC  =       724.57105383
  PAW double counting   =     15049.59385067   -15100.80851677
  entropy T*S    EENTRO =         0.00000000
  eigenvalues    EBANDS =     -1697.21659442
  atomic energy  EATOM  =     14357.65540224
  Solvation  Ediel_sol  =         0.00000000
  ---------------------------------------------------
  free energy    TOTEN  =      -130.15872884 eV

  energy without entropy =     -130.15872884  energy(sigma->0) =     -130.15872884


--------------------------------------------------------------------------------------------------------




--------------------------------------- Iteration      1(   5)  ---------------------------------------


    POTLOK:  cpu time      0.0943: real time      0.0965
    SETDIJ:  cpu time      1.1045: real time      1.1047
     EDDAV:  cpu time     41.1458: real time     41.2263
 BZINTS: Fermi energy:    3.560258;  176.000000 electrons
         Band energy:-0.169511E+04;  BLOECHL correction:   -0.000000
       DOS:  cpu time      0.3414: real time      0.3415
    CHARGE:  cpu time      2.5228: real time      2.5232
    MIXING:  cpu time      0.0018: real time      0.0018
    --------------------------------------------
      LOOP:  cpu time     45.2107: real time     45.2941

 eigenvalue-minimisations  : 42448
 total energy-change (2. order) : 0.1196576E-01  (-0.6567131E-02)
 number of electron     176.0000013 magnetization       0.0000000
 augmentation part        3.0399496 magnetization      -0.0000131

 Broyden mixing:
  rms(total) = 0.24899E-01    rms(broyden)= 0.24891E-01
  rms(prec ) = 0.31151E-01
  weight for this iteration     100.00

 eigenvalues of (default mixing * dielectric matrix)
  average eigenvalue GAMMA=   1.3013
  2.5142  0.9867  0.9867  0.7176

 Free energy of the ion-electron system (eV)
  ---------------------------------------------------
  alpha Z        PSCENC =       894.86746178
  Ewald energy   TEWEN  =    -10059.86850247
  -Hartree energ DENC   =     -4301.24566171
  -exchange      EXHF   =         0.00000000
  -V(xc)+E(xc)   XCENC  =       724.77024400
  PAW double counting   =     14788.83713283   -14840.05286193
  entropy T*S    EENTRO =         0.00000000
  eigenvalues    EBANDS =     -1695.10997781
  atomic energy  EATOM  =     14357.65540224
  Solvation  Ediel_sol  =         0.00000000
  ---------------------------------------------------
  free energy    TOTEN  =      -130.14676308 eV

  energy without entropy =     -130.14676308  energy(sigma->0) =     -130.14676308


--------------------------------------------------------------------------------------------------------




--------------------------------------- Iteration      1(   6)  ---------------------------------------


    POTLOK:  cpu time      0.0948: real time      0.0971
    SETDIJ:  cpu time      1.1053: real time      1.1055
     EDDAV:  cpu time     44.2235: real time     44.3011
 BZINTS: Fermi energy:    3.560603;  176.000000 electrons
         Band energy:-0.169353E+04;  BLOECHL correction:   -0.000000
       DOS:  cpu time      0.3299: real time      0.3300
    CHARGE:  cpu time      2.5086: real time      2.5094
    MIXING:  cpu time      0.0018: real time      0.0018
    --------------------------------------------
      LOOP:  cpu time     48.2639: real time     48.3449

 eigenvalue-minimisations  : 46736
 total energy-change (2. order) : 0.1667800E-03  (-0.1097476E-02)
 number of electron     176.0000013 magnetization       0.0000000
 augmentation part        3.0173973 magnetization      -0.0000076

 Broyden mixing:
  rms(total) = 0.60670E-02    rms(broyden)= 0.60601E-02
  rms(prec ) = 0.66812E-02
  weight for this iteration     100.00

 eigenvalues of (default mixing * dielectric matrix)
  average eigenvalue GAMMA=   1.2115
  2.4684  1.0212  0.7176  0.9253  0.9253

 Free energy of the ion-electron system (eV)
  ---------------------------------------------------
  alpha Z        PSCENC =       894.86746178
  Ewald energy   TEWEN  =    -10059.86850247
  -Hartree energ DENC   =     -4302.88117578
  -exchange      EXHF   =         0.00000000
  -V(xc)+E(xc)   XCENC  =       724.87747466
  PAW double counting   =     14762.35280550   -14813.62061359
  entropy T*S    EENTRO =         0.00000000
  eigenvalues    EBANDS =     -1693.52944864
  atomic energy  EATOM  =     14357.65540224
  Solvation  Ediel_sol  =         0.00000000
  ---------------------------------------------------
  free energy    TOTEN  =      -130.14659630 eV

  energy without entropy =     -130.14659630  energy(sigma->0) =     -130.14659630


--------------------------------------------------------------------------------------------------------




--------------------------------------- Iteration      1(   7)  ---------------------------------------


    POTLOK:  cpu time      0.0948: real time      0.0966
    SETDIJ:  cpu time      1.1048: real time      1.1050
     EDDAV:  cpu time     43.4945: real time     43.5773
 BZINTS: Fermi energy:    3.560808;  176.000000 electrons
         Band energy:-0.169370E+04;  BLOECHL correction:   -0.000000
       DOS:  cpu time      0.3517: real time      0.3518
    CHARGE:  cpu time      2.5282: real time      2.5286
    MIXING:  cpu time      0.0020: real time      0.0019
    --------------------------------------------
      LOOP:  cpu time     47.5759: real time     47.6612

 eigenvalue-minimisations  : 45608
 total energy-change (2. order) :-0.4275796E-04  (-0.5445833E-04)
 number of electron     176.0000013 magnetization      -0.0000000
 augmentation part        3.0178735 magnetization      -0.0000005

 Broyden mixing:
  rms(total) = 0.30367E-02    rms(broyden)= 0.30367E-02
  rms(prec ) = 0.35655E-02
  weight for this iteration     100.00

 eigenvalues of (default mixing * dielectric matrix)
  average eigenvalue GAMMA=   1.2631
  2.4940  1.4884  1.0219  1.0219  0.7306  0.8217

 Free energy of the ion-electron system (eV)
  ---------------------------------------------------
  alpha Z        PSCENC =       894.86746178
  Ewald energy   TEWEN  =    -10059.86850247
  -Hartree energ DENC   =     -4302.72056465
  -exchange      EXHF   =         0.00000000
  -V(xc)+E(xc)   XCENC  =       724.86627921
  PAW double counting   =     14768.73022517   -14819.97748469
  entropy T*S    EENTRO =         0.00000000
  eigenvalues    EBANDS =     -1693.69945564
  atomic energy  EATOM  =     14357.65540224
  Solvation  Ediel_sol  =         0.00000000
  ---------------------------------------------------
  free energy    TOTEN  =      -130.14663906 eV

  energy without entropy =     -130.14663906  energy(sigma->0) =     -130.14663906


--------------------------------------------------------------------------------------------------------




--------------------------------------- Iteration      1(   8)  ---------------------------------------


    POTLOK:  cpu time      0.0958: real time      0.0972
    SETDIJ:  cpu time      1.1062: real time      1.1064
     EDDAV:  cpu time     42.9581: real time     43.0498
 BZINTS: Fermi energy:    3.560927;  176.000000 electrons
         Band energy:-0.169359E+04;  BLOECHL correction:   -0.000000
       DOS:  cpu time      0.3511: real time      0.3512
    CHARGE:  cpu time      2.5319: real time      2.5323
    MIXING:  cpu time      0.0020: real time      0.0020
    --------------------------------------------
      LOOP:  cpu time     47.0451: real time     47.1388

 eigenvalue-minimisations  : 44904
 total energy-change (2. order) :-0.1085739E-04  (-0.1106686E-04)
 number of electron     176.0000013 magnetization      -0.0000000
 augmentation part        3.0158273 magnetization      -0.0000017

 Broyden mixing:
  rms(total) = 0.17427E-02    rms(broyden)= 0.17424E-02
  rms(prec ) = 0.21380E-02
  weight for this iteration     100.00

 eigenvalues of (default mixing * dielectric matrix)
  average eigenvalue GAMMA=   1.3006
  2.5544  2.4032  0.9745  0.9745  0.9297  0.7290  0.5389

 Free energy of the ion-electron system (eV)
  ---------------------------------------------------
  alpha Z        PSCENC =       894.86746178
  Ewald energy   TEWEN  =    -10059.86850247
  -Hartree energ DENC   =     -4302.85095999
  -exchange      EXHF   =         0.00000000
  -V(xc)+E(xc)   XCENC  =       724.87446506
  PAW double counting   =     14766.77582013   -14818.01150772
  entropy T*S    EENTRO =         0.00000000
  eigenvalues    EBANDS =     -1693.58882894
  atomic energy  EATOM  =     14357.65540224
  Solvation  Ediel_sol  =         0.00000000
  ---------------------------------------------------
  free energy    TOTEN  =      -130.14664992 eV

  energy without entropy =     -130.14664992  energy(sigma->0) =     -130.14664992


--------------------------------------------------------------------------------------------------------




--------------------------------------- Iteration      1(   9)  ---------------------------------------


    POTLOK:  cpu time      0.0969: real time      0.0991
    SETDIJ:  cpu time      1.1051: real time      1.1052
     EDDAV:  cpu time     42.2717: real time     42.3402
 BZINTS: Fermi energy:    3.561012;  176.000000 electrons
         Band energy:-0.169360E+04;  BLOECHL correction:   -0.000000
       DOS:  cpu time      0.3298: real time      0.3299
    CHARGE:  cpu time      2.5286: real time      2.5291
    MIXING:  cpu time      0.0022: real time      0.0021
    --------------------------------------------
      LOOP:  cpu time     46.3343: real time     46.4057

 eigenvalue-minimisations  : 43776
 total energy-change (2. order) :-0.3363144E-05  (-0.1277534E-05)
 number of electron     176.0000013 magnetization      -0.0000000
 augmentation part        3.0161958 magnetization      -0.0000010

 Broyden mixing:
  rms(total) = 0.10315E-02    rms(broyden)= 0.10315E-02
  rms(prec ) = 0.13823E-02
  weight for this iteration     100.00

 eigenvalues of (default mixing * dielectric matrix)
  average eigenvalue GAMMA=   1.3052
  2.5856  2.4327  0.9945  0.9945  1.0212  1.0212  0.6961  0.6961

 Free energy of the ion-electron system (eV)
  ---------------------------------------------------
  alpha Z        PSCENC =       894.86746178
  Ewald energy   TEWEN  =    -10059.86850247
  -Hartree energ DENC   =     -4302.84909651
  -exchange      EXHF   =         0.00000000
  -V(xc)+E(xc)   XCENC  =       724.87396597
  PAW double counting   =     14767.11314337   -14818.33667712
  entropy T*S    EENTRO =         0.00000000
  eigenvalues    EBANDS =     -1693.60235054
  atomic energy  EATOM  =     14357.65540224
  Solvation  Ediel_sol  =         0.00000000
  ---------------------------------------------------
  free energy    TOTEN  =      -130.14665328 eV

  energy without entropy =     -130.14665328  energy(sigma->0) =     -130.14665328


--------------------------------------------------------------------------------------------------------




--------------------------------------- Iteration      1(  10)  ---------------------------------------


    POTLOK:  cpu time      0.0958: real time      0.1001
    SETDIJ:  cpu time      1.1045: real time      1.1047
     EDDAV:  cpu time     41.7382: real time     41.8268
 BZINTS: Fermi energy:    3.561066;  176.000000 electrons
         Band energy:-0.169363E+04;  BLOECHL correction:   -0.000000
       DOS:  cpu time      0.3299: real time      0.3300
    CHARGE:  cpu time      2.5245: real time      2.5250
    MIXING:  cpu time      0.0022: real time      0.0022
    --------------------------------------------
      LOOP:  cpu time     45.7951: real time     45.8888

 eigenvalue-minimisations  : 43040
 total energy-change (2. order) : 0.8574243E-06  (-0.1123107E-05)
 number of electron     176.0000013 magnetization       0.0000000
 augmentation part        3.0166094 magnetization      -0.0000005

 Broyden mixing:
  rms(total) = 0.21764E-03    rms(broyden)= 0.21725E-03
  rms(prec ) = 0.30195E-03
  weight for this iteration     100.00

 eigenvalues of (default mixing * dielectric matrix)
  average eigenvalue GAMMA=   1.2693
  2.4952  2.4952  1.1180  1.1180  0.9668  0.9668  0.8901  0.6614  0.7124

 Free energy of the ion-electron system (eV)
  ---------------------------------------------------
  alpha Z        PSCENC =       894.86746178
  Ewald energy   TEWEN  =    -10059.86850247
  -Hartree energ DENC   =     -4302.82576123
  -exchange      EXHF   =         0.00000000
  -V(xc)+E(xc)   XCENC  =       724.87251853
  PAW double counting   =     14767.19701531   -14818.41918949
  entropy T*S    EENTRO =         0.00000000
  eigenvalues    EBANDS =     -1693.62559710
  atomic energy  EATOM  =     14357.65540224
  Solvation  Ediel_sol  =         0.00000000
  ---------------------------------------------------
  free energy    TOTEN  =      -130.14665242 eV

  energy without entropy =     -130.14665242  energy(sigma->0) =     -130.14665242


--------------------------------------------------------------------------------------------------------




--------------------------------------- Iteration      1(  11)  ---------------------------------------


    POTLOK:  cpu time      0.0962: real time      0.0976
    SETDIJ:  cpu time      1.1044: real time      1.1045
     EDDAV:  cpu time     40.4181: real time     40.4959
 BZINTS: Fermi energy:    3.561082;  176.000000 electrons
         Band energy:-0.169364E+04;  BLOECHL correction:   -0.000000
       DOS:  cpu time      0.3510: real time      0.3511
    CHARGE:  cpu time      2.5352: real time      2.5356
    MIXING:  cpu time      0.0023: real time      0.0023
    --------------------------------------------
      LOOP:  cpu time     44.5072: real time     44.5870

 eigenvalue-minimisations  : 41056
 total energy-change (2. order) :-0.3453824E-06  (-0.1401975E-06)
 number of electron     176.0000013 magnetization      -0.0000000
 augmentation part        3.0168046 magnetization       0.0000005

 Broyden mixing:
  rms(total) = 0.11942E-03    rms(broyden)= 0.11940E-03
  rms(prec ) = 0.17578E-03
  weight for this iteration     100.00

 eigenvalues of (default mixing * dielectric matrix)
  average eigenvalue GAMMA=   1.2997
  2.4834  2.4834  1.6426  1.0542  1.0542  1.0585  0.9253  0.9253  0.6622  0.7082

 Free energy of the ion-electron system (eV)
  ---------------------------------------------------
  alpha Z        PSCENC =       894.86746178
  Ewald energy   TEWEN  =    -10059.86850247
  -Hartree energ DENC   =     -4302.81186847
  -exchange      EXHF   =         0.00000000
  -V(xc)+E(xc)   XCENC  =       724.87168573
  PAW double counting   =     14767.38825712   -14818.61016593
  entropy T*S    EENTRO =         0.00000000
  eigenvalues    EBANDS =     -1693.63892276
  atomic energy  EATOM  =     14357.65540224
  Solvation  Ediel_sol  =         0.00000000
  ---------------------------------------------------
  free energy    TOTEN  =      -130.14665277 eV

  energy without entropy =     -130.14665277  energy(sigma->0) =     -130.14665277


--------------------------------------------------------------------------------------------------------




--------------------------------------- Iteration      1(  12)  ---------------------------------------


    POTLOK:  cpu time      0.0939: real time      0.0973
    SETDIJ:  cpu time      1.1050: real time      1.1052
     EDDAV:  cpu time     35.1662: real time     35.2203
 BZINTS: Fermi energy:    3.561125;  176.000000 electrons
         Band energy:-0.169364E+04;  BLOECHL correction:   -0.000000
       DOS:  cpu time      0.3403: real time      0.3405
    CHARGE:  cpu time      2.5422: real time      2.5427
    MIXING:  cpu time      0.0024: real time      0.0024
    --------------------------------------------
      LOOP:  cpu time     39.2502: real time     39.3083

 eigenvalue-minimisations  : 33536
 total energy-change (2. order) :-0.2099914E-06  (-0.3616576E-07)
 number of electron     176.0000013 magnetization       0.0000000
 augmentation part        3.0168999 magnetization       0.0000000

 Broyden mixing:
  rms(total) = 0.99354E-04    rms(broyden)= 0.99339E-04
  rms(prec ) = 0.13408E-03
  weight for this iteration     100.00

 eigenvalues of (default mixing * dielectric matrix)
  average eigenvalue GAMMA=   1.3290
  2.6503  2.4983  2.0128  1.1729  1.1729  0.9563  0.9563  1.0284  0.7774  0.7315
  0.6618

 Free energy of the ion-electron system (eV)
  ---------------------------------------------------
  alpha Z        PSCENC =       894.86746178
  Ewald energy   TEWEN  =    -10059.86850247
  -Hartree energ DENC   =     -4302.80622784
  -exchange      EXHF   =         0.00000000
  -V(xc)+E(xc)   XCENC  =       724.87142065
  PAW double counting   =     14767.42205192   -14818.64384270
  entropy T*S    EENTRO =         0.00000000
  eigenvalues    EBANDS =     -1693.64441655
  atomic energy  EATOM  =     14357.65540224
  Solvation  Ediel_sol  =         0.00000000
  ---------------------------------------------------
  free energy    TOTEN  =      -130.14665298 eV

  energy without entropy =     -130.14665298  energy(sigma->0) =     -130.14665298


--------------------------------------------------------------------------------------------------------




--------------------------------------- Iteration      1(  13)  ---------------------------------------


    POTLOK:  cpu time      0.0965: real time      0.0979
    SETDIJ:  cpu time      1.1040: real time      1.1042
     EDDAV:  cpu time     28.8793: real time     28.9229
 BZINTS: Fermi energy:    3.561147;  176.000000 electrons
         Band energy:-0.169364E+04;  BLOECHL correction:   -0.000000
       DOS:  cpu time      0.3405: real time      0.3406
    --------------------------------------------
      LOOP:  cpu time     30.4202: real time     30.4655

 eigenvalue-minimisations  : 24264
 total energy-change (2. order) :-0.2932393E-07  (-0.1439527E-07)
 number of electron     176.0000013 magnetization       0.0000000
 augmentation part        3.0168999 magnetization       0.0000000

 Free energy of the ion-electron system (eV)
  ---------------------------------------------------
  alpha Z        PSCENC =       894.86746178
  Ewald energy   TEWEN  =    -10059.86850247
  -Hartree energ DENC   =     -4302.81329842
  -exchange      EXHF   =         0.00000000
  -V(xc)+E(xc)   XCENC  =       724.87190783
  PAW double counting   =     14767.38334162   -14818.60549236
  entropy T*S    EENTRO =         0.00000000
  eigenvalues    EBANDS =     -1693.63747323
  atomic energy  EATOM  =     14357.65540224
  Solvation  Ediel_sol  =         0.00000000
  ---------------------------------------------------
  free energy    TOTEN  =      -130.14665301 eV

[...]
 -0.000  -0.000   4.871  -0.000  -0.000   6.208   0.000   0.000
  0.000  -0.002  -0.000   4.869   0.007   0.000   6.210  -0.006
  0.001   0.000  -0.000   0.007   4.864   0.000  -0.006   6.214
  0.000  -0.000   0.001  -0.000  -0.000   0.000   0.000  -0.000
 -0.000  -0.000  -0.002  -0.000  -0.000  -0.000  -0.000   0.000
  0.000  -0.000   0.000  -0.002  -0.000   0.000   0.000  -0.000
  0.005  -0.004  -0.000   0.001  -0.003   0.000   0.000  -0.003
 -0.002   0.002   0.000  -0.000   0.001   0.000  -0.001   0.001
  0.000  -0.000   0.001  -0.000  -0.000   0.000   0.000  -0.000
 -0.000  -0.000  -0.004  -0.000  -0.000  -0.000  -0.000   0.000
  0.001  -0.001   0.000  -0.004  -0.001   0.000   0.001  -0.001
  0.007  -0.006  -0.000   0.001  -0.004   0.000   0.000  -0.004
 -0.002   0.003   0.000  -0.000   0.001   0.000  -0.002   0.001
 total augmentation occupancy for first ion, spin component:           1
  1.994  -0.025   0.000  -0.001   0.001   0.000  -0.001   0.000  -0.000  -0.000  -0.001  -0.005   0.012   0.000   0.000   0.001
 -0.025   0.377   0.000  -0.027   0.010   0.000   0.009  -0.009  -0.000  -0.000  -0.027  -0.242   0.181   0.000   0.000   0.012
  0.000   0.000   2.013   0.000   0.000  -0.008   0.000   0.000   0.011   0.012  -0.000  -0.000   0.000  -0.003  -0.009  -0.000
 -0.001  -0.027   0.000   2.014  -0.004  -0.000  -0.009   0.005  -0.000  -0.000   0.055  -0.029  -0.082   0.000   0.000  -0.030
  0.001   0.010   0.000  -0.004   2.014   0.000   0.005  -0.012   0.000  -0.000  -0.027  -0.153  -0.002  -0.000   0.000   0.011
  0.000   0.000  -0.008  -0.000   0.000   0.007  -0.000  -0.000  -0.008  -0.007  -0.000   0.000  -0.000   0.004   0.004   0.000
 -0.001   0.009   0.000  -0.009   0.005  -0.000   0.009  -0.002   0.000   0.000  -0.019  -0.003   0.042  -0.000  -0.000   0.010
  0.000  -0.009   0.000   0.005  -0.012  -0.000  -0.002   0.010   0.000   0.000   0.014   0.078  -0.015  -0.000  -0.000  -0.007
 -0.000  -0.000   0.011  -0.000   0.000  -0.008   0.000   0.000   0.899   0.158  -0.000  -0.000  -0.000  -0.463  -0.092   0.000
 -0.000  -0.000   0.012  -0.000  -0.000  -0.007   0.000   0.000   0.158   2.507  -0.000  -0.000  -0.000  -0.092  -1.346   0.000
 -0.001  -0.027  -0.000   0.055  -0.027  -0.000  -0.019   0.014  -0.000  -0.000   0.958   0.047  -0.235   0.000   0.000  -0.496
 -0.005  -0.242  -0.000  -0.029  -0.153   0.000  -0.003   0.078  -0.000  -0.000   0.047   3.020  -0.840   0.000   0.000  -0.027
  0.012   0.181   0.000  -0.082  -0.002  -0.000   0.042  -0.015  -0.000  -0.000  -0.235  -0.840   2.895   0.000   0.000   0.117
  0.000   0.000  -0.003   0.000  -0.000   0.004  -0.000  -0.000  -0.463  -0.092   0.000   0.000   0.000   0.238   0.053  -0.000
  0.000   0.000  -0.009   0.000   0.000   0.004  -0.000  -0.000  -0.092  -1.346   0.000   0.000   0.000   0.053   0.724  -0.000
  0.001   0.012  -0.000  -0.030   0.011   0.000   0.010  -0.007   0.000   0.000  -0.496  -0.027   0.117  -0.000  -0.000   0.258
  0.011   0.117   0.000   0.020   0.063  -0.000  -0.001  -0.039   0.000   0.000  -0.028  -1.591   0.432  -0.000  -0.000   0.016
 -0.012  -0.087  -0.000   0.036   0.008   0.000  -0.022   0.006   0.000   0.000   0.116   0.433  -1.535  -0.000  -0.000  -0.058
 total augmentation occupancy for first ion, spin component:           2
  0.000   0.000  -0.000   0.000   0.000  -0.000   0.000   0.000   0.000  -0.000  -0.000   0.000   0.000  -0.000   0.000   0.000
  0.000  -0.000   0.000   0.000   0.000   0.000  -0.000  -0.000  -0.000  -0.000   0.000   0.000  -0.000   0.000   0.000  -0.000
 -0.000   0.000   0.000   0.000   0.000   0.000   0.000   0.000   0.000   0.000   0.000  -0.000   0.000  -0.000  -0.000  -0.000
  0.000   0.000   0.000   0.000  -0.000   0.000   0.000  -0.000  -0.000  -0.000   0.000   0.000  -0.000   0.000   0.000  -0.000
  0.000   0.000   0.000  -0.000   0.000   0.000  -0.000   0.000   0.000  -0.000  -0.000   0.000  -0.000  -0.000   0.000   0.000
 -0.000   0.000   0.000   0.000   0.000   0.000   0.000  -0.000   0.000   0.000  -0.000  -0.000  -0.000   0.000  -0.000   0.000
  0.000  -0.000   0.000   0.000  -0.000   0.000  -0.000   0.000  -0.000   0.000  -0.000   0.000  -0.000   0.000  -0.000   0.000
  0.000  -0.000   0.000  -0.000   0.000  -0.000   0.000  -0.000   0.000  -0.000  -0.000  -0.000   0.000  -0.000   0.000   0.000
  0.000  -0.000   0.000  -0.000   0.000   0.000  -0.000   0.000  -0.000   0.000   0.000   0.000  -0.000   0.000  -0.000  -0.000
 -0.000  -0.000   0.000  -0.000  -0.000   0.000   0.000  -0.000   0.000  -0.000   0.000  -0.000   0.000  -0.000   0.000   0.000
 -0.000   0.000   0.000   0.000  -0.000  -0.000  -0.000  -0.000   0.000   0.000  -0.000  -0.000   0.000  -0.000  -0.000  -0.000
  0.000   0.000  -0.000   0.000   0.000  -0.000   0.000  -0.000   0.000  -0.000  -0.000  -0.000   0.000  -0.000   0.000   0.000
  0.000  -0.000   0.000  -0.000  -0.000  -0.000  -0.000   0.000  -0.000   0.000   0.000   0.000  -0.000   0.000  -0.000  -0.000
 -0.000   0.000  -0.000   0.000  -0.000   0.000   0.000  -0.000   0.000  -0.000  -0.000  -0.000   0.000  -0.000   0.000   0.000
  0.000   0.000  -0.000   0.000   0.000  -0.000  -0.000   0.000  -0.000   0.000  -0.000   0.000  -0.000   0.000  -0.000  -0.000
  0.000  -0.000  -0.000  -0.000   0.000   0.000   0.000   0.000  -0.000   0.000  -0.000   0.000  -0.000   0.000  -0.000   0.000
 -0.000  -0.000   0.000  -0.000  -0.000   0.000  -0.000   0.000  -0.000   0.000   0.000   0.000  -0.000   0.000  -0.000  -0.000
 -0.000   0.000  -0.000   0.000   0.000   0.000   0.000  -0.000   0.000  -0.000  -0.000  -0.000   0.000  -0.000   0.000   0.000


------------------------ aborting loop because EDIFF is reached ----------------------------------------





 total charge

# of ion       s       p       d       tot
------------------------------------------
    1        1.997   5.624   0.273   7.894
    2        1.997   5.624   0.273   7.894
    3        1.997   5.624   0.273   7.894
    4        1.997   5.624   0.273   7.894
    5        1.997   5.624   0.273   7.894
    6        1.997   5.624   0.273   7.894
    7        1.997   5.624   0.273   7.894
    8        1.997   5.624   0.273   7.894
    9        1.554   3.384   0.000   4.938
   10        1.554   3.384   0.000   4.938
   11        1.726   4.341   0.000   6.067
   12        1.726   4.341   0.000   6.067
   13        1.728   4.352   0.000   6.080
   14        1.728   4.352   0.000   6.080
   15        1.726   4.341   0.000   6.067
   16        1.726   4.341   0.000   6.067
   17        1.726   4.341   0.000   6.067
   18        1.726   4.341   0.000   6.067
   19        1.728   4.352   0.000   6.080
   20        1.728   4.352   0.000   6.080
   21        1.726   4.341   0.000   6.067
   22        1.726   4.341   0.000   6.067
--------------------------------------------------
tot         39.802 103.896   2.181 145.879



 magnetization (x)

# of ion       s       p       d       tot
------------------------------------------
    1        0.000  -0.000   0.000  -0.000
    2       -0.000  -0.000   0.000  -0.000
    3        0.000  -0.000   0.000   0.000
    4        0.000   0.000  -0.000   0.000
    5        0.000   0.000  -0.000   0.000
    6        0.000   0.000  -0.000   0.000
    7       -0.000   0.000   0.000  -0.000
    8       -0.000   0.000   0.000  -0.000
    9        0.000  -0.000   0.000  -0.000
   10        0.000  -0.000   0.000  -0.000
   11        0.000  -0.000   0.000   0.000
   12       -0.000  -0.000   0.000  -0.000
   13       -0.000  -0.000   0.000  -0.000
   14       -0.000  -0.000   0.000  -0.000
   15       -0.000  -0.000   0.000  -0.000
   16       -0.000  -0.000   0.000  -0.000
   17       -0.000  -0.000   0.000  -0.000
   18       -0.000  -0.000   0.000  -0.000
   19       -0.000  -0.000   0.000  -0.000
   20       -0.000  -0.000   0.000  -0.000
   21        0.000  -0.000   0.000   0.000
   22       -0.000  -0.000   0.000  -0.000
--------------------------------------------------
tot         -0.000  -0.000   0.000  -0.000

    CHARGE:  cpu time      2.5064: real time      2.5068
    FORLOC:  cpu time      0.0049: real time      0.0049
    FORNL :  cpu time     12.5682: real time     12.5700
    STRESS:  cpu time     13.3801: real time     13.3824
    FORCOR:  cpu time      0.0970: real time      0.0970
    FORHAR:  cpu time      0.0148: real time      0.0149
    MIXING:  cpu time      0.0025: real time      0.0025
    OFIELD:  cpu time      0.0002: real time      0.0002

  FORCE on cell =-STRESS in cart. coord.  units (eV):
  Direction    XX          YY          ZZ          XY          YZ          ZX
  --------------------------------------------------------------------------------------
  Alpha Z   894.86746   894.86746   894.86746
  Ewald   -3389.63008 -3389.63008 -3280.64017     0.00000    -0.00000    -0.00000
  Hartree  1402.04086  1402.04089  1498.73392     0.00025     0.00005     0.00006
  E(xc)    -796.39427  -796.39427  -796.41702     0.00001     0.00000     0.00000
  Local    -776.13198  -776.13201  -977.59194    -0.00024    -0.00009    -0.00011
  n-local  -817.60503  -817.60503  -816.54694     0.00002    -0.00001    -0.00001
  augment   155.37628   155.37628   155.16184    -0.00000     0.00000     0.00000
  Kinetic  3323.35309  3323.35309  3318.34555    -0.00006     0.00006     0.00007
  Fock        0.00000     0.00000     0.00000     0.00000     0.00000     0.00000
  -------------------------------------------------------------------------------------
  Total      -4.12367    -4.12368    -4.08729    -0.00003     0.00001     0.00001
  in kB     -13.72912   -13.72915   -13.60801    -0.00010     0.00004     0.00005
  external pressure =      -13.69 kB  Pullay stress =        0.00 kB


 VOLUME and BASIS-vectors are now :
 -----------------------------------------------------------------------------
  energy-cutoff  :      680.00
  volume of cell :      481.23
      direct lattice vectors                 reciprocal lattice vectors
     8.747874680  0.000000000  0.000000000     0.114313480 -0.000000000  0.000000000
     0.000000000  8.747874680  0.000000000     0.000000000  0.114313480  0.000000000
     0.000000000  0.000000000  6.288491350    -0.000000000 -0.000000000  0.159020653

  length of vectors
     8.747874680  8.747874680  6.288491350     0.114313480  0.114313480  0.159020653


 FORCES acting on ions
    electron-ion (+dipol)            ewald-force                    non-local-force                 convergence-correction
 -----------------------------------------------------------------------------------------------
   0.824E+02 0.394E-04 0.230E+02   -.828E+02 0.142E-13 -.220E+02   0.410E+00 0.135E-04 -.953E+00   -.205E-03 -.148E-04 0.710E-04
   0.718E-04 0.824E+02 0.230E+02   -.355E-13 -.828E+02 -.220E+02   0.201E-04 0.410E+00 -.953E+00   -.476E-04 -.205E-03 0.511E-04
   0.206E-03 -.824E+02 0.230E+02   -.426E-13 0.828E+02 -.220E+02   0.372E-04 -.410E+00 -.953E+00   -.237E-03 0.278E-03 0.500E-04
   -.824E+02 0.168E-03 0.230E+02   0.828E+02 -.114E-12 -.220E+02   -.410E+00 0.293E-04 -.953E+00   0.281E-03 -.198E-03 0.786E-04
   0.824E+02 -.168E-03 -.230E+02   -.828E+02 0.853E-13 0.220E+02   0.410E+00 -.293E-04 0.953E+00   -.280E-03 0.198E-03 -.783E-04
   -.206E-03 0.824E+02 -.230E+02   -.426E-13 -.828E+02 0.220E+02   -.372E-04 0.410E+00 0.953E+00   0.237E-03 -.279E-03 -.504E-04
   -.719E-04 -.824E+02 -.230E+02   -.355E-13 0.828E+02 0.220E+02   -.202E-04 -.410E+00 0.953E+00   0.477E-04 0.206E-03 -.512E-04
   -.824E+02 -.395E-04 -.230E+02   0.828E+02 -.568E-13 0.220E+02   -.410E+00 -.136E-04 0.953E+00   0.204E-03 0.148E-04 -.704E-04
   0.212E-04 -.824E-05 -.632E-06   -.391E-13 0.355E-14 -.117E-13   0.258E-04 -.175E-04 -.317E-06   -.171E-04 0.267E-05 0.159E-05
   -.213E-04 0.823E-05 0.538E-06   -.320E-13 -.391E-13 -.511E-14   -.259E-04 0.176E-04 0.287E-06   0.171E-04 -.271E-05 -.148E-05
   -.361E+02 0.361E+02 -.400E-05   0.366E+02 -.366E+02 0.330E-14   -.485E+00 0.485E+00 0.584E-07   0.682E-04 -.647E-04 0.319E-05
   -.361E+02 -.361E+02 0.213E-04   0.366E+02 0.366E+02 0.614E-13   -.485E+00 -.485E+00 0.423E-04   0.788E-04 0.854E-04 -.566E-04
   0.131E-03 0.852E-04 -.697E+01   -.249E-13 0.995E-13 0.782E+01   0.980E-04 0.250E-04 -.865E+00   -.208E-03 -.106E-03 -.238E-04
   0.109E-03 0.108E-03 -.697E+01   0.107E-12 -.782E-13 0.782E+01   0.344E-04 0.853E-04 -.865E+00   -.137E-03 -.176E-03 -.340E-04
   0.361E+02 -.361E+02 -.797E-05   -.366E+02 0.366E+02 -.399E-13   0.485E+00 -.485E+00 -.113E-04   -.119E-03 0.111E-03 0.166E-04
   0.361E+02 0.361E+02 -.349E-04   -.366E+02 -.366E+02 -.760E-13   0.485E+00 0.485E+00 -.520E-04   -.952E-04 -.764E-04 0.765E-04
   -.361E+02 -.361E+02 0.350E-04   0.366E+02 0.366E+02 0.573E-13   -.485E+00 -.485E+00 0.521E-04   0.955E-04 0.771E-04 -.766E-04
   -.361E+02 0.361E+02 0.799E-05   0.366E+02 -.366E+02 0.101E-14   -.485E+00 0.485E+00 0.113E-04   0.120E-03 -.112E-03 -.166E-04
   -.131E-03 -.852E-04 0.697E+01   -.711E-14 -.213E-13 -.782E+01   -.980E-04 -.249E-04 0.865E+00   0.208E-03 0.106E-03 0.238E-04
   -.109E-03 -.108E-03 0.697E+01   0.178E-13 0.355E-13 -.782E+01   -.344E-04 -.852E-04 0.865E+00   0.137E-03 0.176E-03 0.341E-04
   0.361E+02 -.361E+02 0.403E-05   -.366E+02 0.366E+02 -.123E-13   0.485E+00 -.485E+00 -.587E-07   -.686E-04 0.654E-04 -.323E-05
   0.361E+02 0.361E+02 -.213E-04   -.366E+02 -.366E+02 -.409E-13   0.485E+00 0.485E+00 -.423E-04   -.793E-04 -.862E-04 0.566E-04
 -----------------------------------------------------------------------------------------------
   0.126E-06 -.637E-07 -.303E-06   -.163E-12 -.284E-13 0.898E-13   0.102E-06 0.201E-06 -.153E-06   -.260E-06 -.677E-07 0.337E-06


 POSITION                                       TOTAL-FORCE (eV/Angst)
 -----------------------------------------------------------------------------------
      2.22128      0.00000      1.84289         0.025831      0.000038      0.047006
      4.37394      6.59521      4.98714         0.000044      0.025830      0.047006
      4.37394      2.15266      4.98714         0.000006     -0.025844      0.046993
      6.52660      0.00000      1.84289        -0.025845     -0.000000      0.046992
      6.59521      4.37394      1.30135         0.025845      0.000000     -0.046992
      0.00000      2.22128      4.44560        -0.000006      0.025844     -0.046993
      0.00000      6.52660      4.44560        -0.000044     -0.025830     -0.047006
      2.15266      4.37394      1.30135        -0.025831     -0.000038     -0.047006
      4.37394      4.37394      0.00000         0.000030     -0.000023      0.000001
      0.00000      0.00000      3.14425        -0.000030      0.000023     -0.000001
      2.43050      6.31737      3.14425        -0.014301      0.014299     -0.000001
      2.43050      2.43050      3.14425        -0.014297     -0.014293      0.000007
      4.37394      0.00000      3.35030         0.000021      0.000004     -0.015807
      4.37394      0.00000      0.20605         0.000006      0.000017     -0.015809
      6.31737      2.43050      3.14425         0.014297     -0.014296     -0.000003
      6.31737      6.31737      3.14425         0.014294      0.014295     -0.000010
      6.80444      6.80444      0.00000        -0.014294     -0.014295      0.000010
      6.80444      1.94343      0.00000        -0.014297      0.014296      0.000003
      0.00000      4.37394      6.08244        -0.000021     -0.000004      0.015807
      0.00000      4.37394      2.93820        -0.000006     -0.000017      0.015809
      1.94343      6.80444      0.00000         0.014301     -0.014299      0.000001
      1.94343      1.94343      0.00000         0.014297      0.014293     -0.000007
 -----------------------------------------------------------------------------------
    total drift:                               -0.000000      0.000000     -0.000000


--------------------------------------------------------------------------------------------------------



  FREE ENERGIE OF THE ION-ELECTRON SYSTEM (eV)
  ---------------------------------------------------
  free  energy   TOTEN  =      -130.14665301 eV

  energy  without entropy=     -130.14665301  energy(sigma->0) =     -130.14665301



--------------------------------------------------------------------------------------------------------


    POTLOK:  cpu time      1.2130: real time      1.2132


--------------------------------------------------------------------------------------------------------


 writing wavefunctions
     LOOP+:  cpu time    632.6121: real time    637.6149
    4ORBIT:  cpu time      0.0000: real time      0.0000



 total charge

# of ion       s       p       d       tot
------------------------------------------
    1        1.997   5.624   0.273   7.894
    2        1.997   5.624   0.273   7.894
    3        1.997   5.624   0.273   7.894
    4        1.997   5.624   0.273   7.894
    5        1.997   5.624   0.273   7.894
    6        1.997   5.624   0.273   7.894
    7        1.997   5.624   0.273   7.894
    8        1.997   5.624   0.273   7.894
    9        1.554   3.384   0.000   4.938
   10        1.554   3.384   0.000   4.938
   11        1.726   4.341   0.000   6.067
   12        1.726   4.341   0.000   6.067
   13        1.728   4.352   0.000   6.080
   14        1.728   4.352   0.000   6.080
   15        1.726   4.341   0.000   6.067
   16        1.726   4.341   0.000   6.067
   17        1.726   4.341   0.000   6.067
   18        1.726   4.341   0.000   6.067
   19        1.728   4.352   0.000   6.080
   20        1.728   4.352   0.000   6.080
   21        1.726   4.341   0.000   6.067
   22        1.726   4.341   0.000   6.067
--------------------------------------------------
tot         39.802 103.896   2.181 145.879



 magnetization (x)

# of ion       s       p       d       tot
------------------------------------------
    1        0.000  -0.000   0.000  -0.000
    2       -0.000  -0.000   0.000  -0.000
    3        0.000  -0.000   0.000   0.000
    4        0.000   0.000  -0.000   0.000
    5        0.000   0.000  -0.000   0.000
    6        0.000   0.000  -0.000   0.000
    7       -0.000   0.000   0.000  -0.000
    8       -0.000   0.000   0.000  -0.000
    9        0.000  -0.000   0.000  -0.000
   10        0.000  -0.000   0.000  -0.000
   11        0.000  -0.000   0.000   0.000
   12       -0.000  -0.000   0.000  -0.000
   13       -0.000  -0.000   0.000  -0.000
   14       -0.000  -0.000   0.000  -0.000
   15       -0.000  -0.000   0.000  -0.000
   16       -0.000  -0.000   0.000  -0.000
   17       -0.000  -0.000   0.000  -0.000
   18       -0.000  -0.000   0.000  -0.000
   19       -0.000  -0.000   0.000  -0.000
   20       -0.000  -0.000   0.000  -0.000
   21        0.000  -0.000   0.000   0.000
   22       -0.000  -0.000   0.000  -0.000
--------------------------------------------------
tot         -0.000  -0.000   0.000  -0.000

 BZINTS: Fermi energy:    3.561147;  176.000000 electrons
         Band energy:-0.169364E+04;  BLOECHL correction:   -0.000000

 total amount of memory used by VASP MPI-rank0   158999. kBytes
=======================================================================

   base      :      30000. kBytes
   nonl-proj :      43632. kBytes
   fftplans  :       1706. kBytes
   grid      :       4480. kBytes
   one-center:         62. kBytes
   wavefun   :      79119. kBytes



 General timing and accounting informations for this job:
 ========================================================

                  Total CPU time used (sec):      703.036
                            User time (sec):      689.451
                          System time (sec):       13.586
                         Elapsed time (sec):      709.232

                   Maximum memory used (kb):      378636.
                   Average memory used (kb):          N/A

                          Minor page faults:       118150
                          Major page faults:            0
                 Voluntary context switches:         6557
