unknown system
           1
     8.747875    0.000000    0.000000
     0.000000    8.747875    0.000000
     0.000000    0.000000    6.288491
   Ba   O    F
     8     2    12
Direct configuration=     1
   0.25392172  0.00000000  0.29305831
   0.50000000  0.75392172  0.79305831
   0.50000000  0.24607828  0.79305831
   0.74607828  0.00000000  0.29305831
   0.75392172  0.50000000  0.20694169
   0.00000000  0.25392172  0.70694169
   0.00000000  0.74607828  0.70694169
   0.24607828  0.50000000  0.20694169
   0.50000000  0.50000000  0.00000000
   0.00000000  0.00000000  0.50000000
   0.27783925  0.72216075  0.50000000
   0.27783925  0.27783925  0.50000000
   0.50000000  0.00000000  0.53276620
   0.50000000  0.00000000  0.03276620
   0.72216075  0.27783925  0.50000000
   0.72216075  0.72216075  0.50000000
   0.77783925  0.77783925  0.00000000
   0.77783925  0.22216075  0.00000000
   0.00000000  0.50000000  0.96723380
   0.00000000  0.50000000  0.46723380
   0.22216075  0.77783925  0.00000000
   0.22216075  0.22216075  0.00000000
