 vasp.6.2.1 16May21 (build Oct 27 2021 18:14:32) complex                        
  
 executed on             LinuxIFC date 2021.11.23  17:34:22
 running on    4 total cores
 distrk:  each k-point on    4 cores,    1 groups
 distr:  one band on NCORE=   4 cores,    1 groups


--------------------------------------------------------------------------------------------------------


 INCAR:
   ALGO = Normal
   EDIFF = 1e-05
   EDIFFG = -0.02
   ENAUG = 1360.0
   ENCUT = 680.0
   IBRION = -1
   ISIF = 3
   ISMEAR = -5
   ISPIN = 1
   LAECHG = True
   LASPH = True
   LCHARG = True
   LELF = True
   LMIXTAU = True
   LORBIT = 11
   LREAL = Auto
   LVTOT = True
   LWAVE = False
   MAGMOM = 2*0.6
   NCORE = 4
   NELM = 200
   NSW = 1
   PREC = Accurate
   SIGMA = 0.05

 POTCAR:    PAW_PBE Si 05Jan2001                  
 WARNING: For LVTOT=.TRUE., VASP.5.x writes the TOTAL local potential to the
     file LOCPOT. If you want only the Hartree contributions, use LVHAR=.TRUE.
     instead. 

 POTCAR:    PAW_PBE Si 05Jan2001                  
   VRHFIN =Si: s2p2                                                                                 
   LEXCH  = PE                                                                                      
   EATOM  =   103.0669 eV,    7.5752 Ry                                                             
                                                                                                    
   TITEL  = PAW_PBE Si 05Jan2001                                                                    
   LULTRA =        F    use ultrasoft PP ?                                                          
   IUNSCR =        1    unscreen: 0-lin 1-nonlin 2-no                                               
   RPACOR =    1.500    partial core radius                                                         
   POMASS =   28.085; ZVAL   =    4.000    mass and valenz                                          
   RCORE  =    1.900    outmost cutoff radius                                                       
   RWIGS  =    2.480; RWIGS  =    1.312    wigner-seitz radius (au A)                               
   ENMAX  =  245.345; ENMIN  =  184.009 eV                                                          
   ICORE  =        2    local potential                                                             
   LCOR   =        T    correct aug charges                                                         
   LPAW   =        T    paw PP                                                                      
   EAUG   =  322.069                                                                                
   DEXC   =    0.000                                                                                
   RMAX   =    1.950    core radius for proj-oper                                                   
   RAUG   =    1.300    factor for augmentation sphere                                              
   RDEP   =    1.993    radius for radial grids                                                     
   RDEPT  =    1.837    core radius for aug-charge                                                  
                                                                                                    
   Atomic configuration                                                                             
    6 entries                                                                                       
     n  l   j            E        occ.                                                              
     1  0  0.50     -1785.8828   2.0000                                                             
     2  0  0.50      -139.4969   2.0000                                                             
     2  1  1.50       -95.5546   6.0000                                                             
     3  0  0.50       -10.8127   2.0000                                                             
     3  1  0.50        -4.0811   2.0000                                                             
     3  2  1.50        -4.0817   0.0000                                                             
   Description                                                                                      
     l       E           TYP  RCUT    TYP  RCUT                                                     
     0    -10.8127223     23  1.900                                                                 
     0     -7.6451159     23  1.900                                                                 
     1     -4.0811372     23  1.900                                                                 
     1      2.4879257     23  1.900                                                                 
     2     -4.0817478      7  1.900                                                                 
  local pseudopotential read in
  partial core-charges read in
  partial kinetic energy density read in
  atomic valenz-charges read in
  non local Contribution for L=           0  read in
    real space projection operators read in
  non local Contribution for L=           0  read in
    real space projection operators read in
  non local Contribution for L=           1  read in
    real space projection operators read in
  non local Contribution for L=           1  read in
    real space projection operators read in
    PAW grid and wavefunctions read in
 
   number of l-projection  operators is LMAX  =           4
   number of lm-projection operators is LMMAX =           8
 
 -----------------------------------------------------------------------------
|                                                                             |
|               ----> ADVICE to this user running VASP <----                  |
|                                                                             |
|     You have a (more or less) 'small supercell' and for smaller cells       |
|     it is recommended to use the reciprocal-space projection scheme!        |
|     The real-space optimization is not efficient for small cells and it     |
|     is also less accurate ...                                               |
|     Therefore, set LREAL=.FALSE. in the INCAR file.                         |
|                                                                             |
 -----------------------------------------------------------------------------

 Optimization of the real space projectors (new method)

 maximal supplied QI-value         = 19.84
 optimisation between [QCUT,QGAM] = [ 13.29, 26.59] = [ 49.49,197.96] Ry 
 Optimized for a Real-space Cutoff    1.12 Angstroem

   l    n(q)    QCUT    max X(q) W(low)/X(q) W(high)/X(q)  e(spline) 
   0      9    13.294   159.560    0.23E-03    0.88E-04    0.53E-07
   0      9    13.294   115.863    0.22E-03    0.87E-04    0.52E-07
   1      8    13.294    88.339    0.81E-04    0.17E-03    0.12E-06
   1      8    13.294    48.592    0.79E-04    0.17E-03    0.12E-06
  PAW_PBE Si 05Jan2001                  :
 energy of atom  1       EATOM= -103.0669
 kinetic energy error for atom=    0.0003 (will be added to EATOM!!)
 
 
 POSCAR: Si2
  positions in direct lattice
  No initial velocities read in
 exchange correlation table for  LEXCH =        8
   RHO(1)=    0.500       N(1)  =     2000
   RHO(2)=  100.500       N(2)  =     4000
 


--------------------------------------------------------------------------------------------------------


 ion  position               nearest neighbor table
   1  0.251  0.238  0.252-   2 2.31   2 2.36   2 2.36   2 2.45
   2  0.999  0.012  0.998-   1 2.31   1 2.36   1 2.36   1 2.45
 
  LATTYP: Found a face centered cubic cell.
 ALAT       =     5.4687280757
  
  Lattice vectors:
  
 A1 = (   3.3488980000,   0.0000000000,   1.9334870000)
 A2 = (   1.1162990000,   3.1573720000,   1.9334870000)
 A3 = (   0.0000000000,   0.0000000000,   3.8669750000)


Analysis of symmetry for initial positions (statically):
=====================================================================
 Subroutine PRICEL returns:
 Original cell was already a primitive cell.
 

 Routine SETGRP: Setting up the symmetry group for a 
 face centered cubic supercell.


 Subroutine GETGRP returns: Found  2 space group operations
 (whereof  1 operations were pure point group operations)
 out of a pool of 48 trial point group operations.


The static configuration has the point symmetry C_1 .
 The point group associated with its full space group is S_2 .


Analysis of symmetry for dynamics (positions and initial velocities):
=====================================================================
 Subroutine PRICEL returns:
 Original cell was already a primitive cell.
 

 Routine SETGRP: Setting up the symmetry group for a 
 face centered cubic supercell.


 Subroutine GETGRP returns: Found  2 space group operations
 (whereof  1 operations were pure point group operations)
 out of a pool of 48 trial point group operations.


The dynamic configuration has the point symmetry C_1 .
 The point group associated with its full space group is S_2 .


 Subroutine INISYM returns: Found  2 space group operations
 (whereof  1 operations are pure point group operations),
 and found     1 'primitive' translations


----------------------------------------------------------------------------------------

                                     Primitive cell                                     

  volume of cell :      40.8883

  direct lattice vectors                    reciprocal lattice vectors
     3.348898000  0.000000000  1.933487000     0.298605691 -0.105573000  0.000000000
     1.116299000  3.157372000  1.933487000     0.000000000  0.316719094  0.000000000
     0.000000000  0.000000000  3.866975000    -0.149302807 -0.105573020  0.258600069

  length of vectors
     3.866974243  3.866974707  3.866975000     0.316719145  0.316719094  0.316719096

  position of ions in fractional coordinates (direct lattice)
     0.250848000  0.237797000  0.252134000
     0.999152000  0.012203000  0.997866000

  ion indices of the primitive-cell ions
   primitive index   ion index
                 1           1
                 2           2

----------------------------------------------------------------------------------------

 
 
 KPOINTS: pymatgen with grid density = 607 / numbe

Automatic generation of k-mesh.
 Grid dimensions read from file:
 generate k-points for:    6    6    6

 Generating k-lattice:

  Cartesian coordinates                     Fractional coordinates (reciprocal lattice)
     0.049767615 -0.017595500  0.000000000     0.166666667 -0.000000000  0.000000000
     0.000000000  0.052786516  0.000000000     0.000000000  0.166666667  0.000000000
    -0.024883801 -0.017595503  0.043100011     0.000000000  0.000000000  0.166666667

  Length of vectors
     0.052786524  0.052786516  0.052786516

  Shift w.r.t. Gamma in fractional coordinates (k-lattice)
     0.000000000  0.000000000  0.000000000

 TETIRR: Found    648 inequivalent tetrahedra from     1296
 
 Subroutine IBZKPT returns following result:
 ===========================================
 
 Found    112 irreducible k-points:
 
 Following reciprocal coordinates:
            Coordinates               Weight
  0.000000  0.000000  0.000000      1.000000
  0.166667  0.000000  0.000000      2.000000
 -0.000000  0.166667  0.000000      2.000000
  0.000000  0.000000  0.166667      2.000000
  0.166667  0.166667  0.166667      2.000000
  0.333333  0.000000  0.000000      2.000000
  0.000000  0.333333  0.000000      2.000000
  0.000000  0.000000  0.333333      2.000000
  0.333333  0.333333  0.333333      2.000000
  0.500000  0.000000  0.000000      1.000000
  0.000000  0.500000  0.000000      1.000000
 -0.000000  0.000000  0.500000      1.000000
  0.500000  0.500000  0.500000      1.000000
  0.166667  0.166667  0.000000      2.000000
  0.000000  0.166667  0.166667      2.000000
  0.166667  0.000000  0.166667      2.000000
  0.333333  0.166667  0.000000      2.000000
  0.000000  0.333333  0.166667      2.000000
  0.166667  0.000000  0.333333      2.000000
  0.166667  0.166667 -0.166667      2.000000
  0.333333  0.166667  0.333333      2.000000
  0.166667  0.333333  0.000000      2.000000
  0.166667 -0.166667 -0.166667      2.000000
  0.333333  0.333333  0.166667      2.000000
  0.000000  0.166667  0.333333      2.000000
 -0.166667  0.166667 -0.166667      2.000000
  0.166667  0.333333  0.333333      2.000000
  0.333333  0.000000  0.166667      2.000000
  0.500000  0.166667  0.000000      2.000000
  0.000000  0.500000  0.166667      2.000000
  0.166667  0.000000  0.500000      2.000000
  0.166667  0.166667 -0.333333      2.000000
  0.500000  0.333333  0.500000      2.000000
  0.166667  0.500000  0.000000      2.000000
  0.333333 -0.166667 -0.166667      2.000000
  0.500000  0.500000  0.333333      2.000000
 -0.000000  0.166667  0.500000      2.000000
 -0.166667  0.333333 -0.166667      2.000000
  0.333333  0.500000  0.500000      2.000000
  0.500000  0.000000  0.166667      2.000000
 -0.333333  0.166667  0.000000      2.000000
  0.000000 -0.333333  0.166667      2.000000
  0.166667 -0.000000 -0.333333      2.000000
  0.166667  0.166667  0.500000      2.000000
 -0.333333  0.500000 -0.333333      2.000000
  0.166667 -0.333333  0.000000      2.000000
  0.500000 -0.166667 -0.166667      2.000000
 -0.333333 -0.333333  0.500000      2.000000
 -0.000000  0.166667 -0.333333      2.000000
 -0.166667  0.500000 -0.166667      2.000000
  0.500000 -0.333333 -0.333333      2.000000
 -0.333333 -0.000000  0.166667      2.000000
 -0.166667  0.166667  0.000000      2.000000
  0.000000 -0.166667  0.166667      2.000000
  0.166667  0.000000 -0.166667      2.000000
  0.166667  0.166667  0.333333      2.000000
 -0.166667 -0.333333 -0.166667      2.000000
 -0.333333 -0.166667 -0.166667      2.000000
  0.333333  0.333333  0.000000      2.000000
  0.000000  0.333333  0.333333      2.000000
  0.333333  0.000000  0.333333      2.000000
  0.500000  0.333333  0.000000      2.000000
  0.000000  0.500000  0.333333      2.000000
  0.333333  0.000000  0.500000      2.000000
  0.333333  0.333333 -0.166667      2.000000
  0.500000  0.166667  0.500000      2.000000
  0.333333  0.500000  0.000000      2.000000
  0.166667 -0.333333 -0.333333      2.000000
  0.500000  0.500000  0.166667      2.000000
 -0.000000  0.333333  0.500000      2.000000
 -0.333333  0.166667 -0.333333      2.000000
  0.166667  0.500000  0.500000      2.000000
  0.500000  0.000000  0.333333      2.000000
 -0.333333  0.333333  0.000000      2.000000
  0.000000 -0.333333  0.333333      2.000000
  0.333333 -0.000000 -0.333333      2.000000
  0.333333  0.333333 -0.333333      2.000000
 -0.333333  0.333333 -0.333333      2.000000
  0.333333 -0.333333 -0.333333      2.000000
  0.500000  0.500000  0.000000      1.000000
 -0.000000  0.500000  0.500000      1.000000
  0.500000  0.000000  0.500000      1.000000
  0.500000  0.333333  0.166667      2.000000
  0.166667  0.500000  0.333333      2.000000
  0.333333  0.166667  0.500000      2.000000
  0.333333  0.166667 -0.166667      2.000000
  0.500000  0.166667  0.333333      2.000000
  0.166667 -0.333333 -0.166667      2.000000
  0.166667  0.333333 -0.166667      2.000000
  0.166667 -0.166667 -0.333333      2.000000
  0.333333  0.500000  0.166667      2.000000
 -0.166667  0.166667 -0.333333      2.000000
 -0.333333  0.166667 -0.166667      2.000000
  0.166667  0.333333  0.500000      2.000000
 -0.333333  0.333333  0.166667      2.000000
  0.166667 -0.333333  0.333333      2.000000
  0.333333  0.166667 -0.333333      2.000000
 -0.333333  0.333333  0.500000      2.000000
  0.166667  0.500000 -0.166667      2.000000
  0.333333 -0.166667 -0.333333      2.000000
  0.500000 -0.333333  0.333333      2.000000
 -0.166667  0.166667  0.500000      2.000000
 -0.333333  0.333333 -0.166667      2.000000
  0.333333  0.500000 -0.333333      2.000000
  0.500000 -0.166667  0.166667      2.000000
 -0.166667 -0.333333  0.333333      2.000000
 -0.333333  0.500000  0.166667      2.000000
  0.166667 -0.333333  0.500000      2.000000
  0.500000  0.166667 -0.333333      2.000000
  0.500000  0.333333 -0.166667      2.000000
 -0.333333  0.166667  0.500000      2.000000
  0.166667  0.500000 -0.333333      2.000000
 
 Following cartesian coordinates:
            Coordinates               Weight
  0.000000  0.000000  0.000000      1.000000
  0.049768 -0.017595  0.000000      2.000000
 -0.000000  0.052787  0.000000      2.000000
 -0.024884 -0.017596  0.043100      2.000000
  0.024884  0.017596  0.043100      2.000000
  0.099535 -0.035191  0.000000      2.000000
 -0.000000  0.105573  0.000000      2.000000
 -0.049768 -0.035191  0.086200      2.000000
  0.049768  0.035191  0.086200      2.000000
  0.149303 -0.052786  0.000000      1.000000
 -0.000000  0.158360  0.000000      1.000000
 -0.074651 -0.052787  0.129300      1.000000
  0.074651  0.052787  0.129300      1.000000
  0.049768  0.035191  0.000000      2.000000
 -0.024884  0.035191  0.043100      2.000000
  0.024884 -0.035191  0.043100      2.000000
  0.099535  0.017596  0.000000      2.000000
 -0.024884  0.087978  0.043100      2.000000
  0.000000 -0.052787  0.086200      2.000000
  0.074651  0.052787 -0.043100      2.000000
  0.049768 -0.017595  0.086200      2.000000
  0.049768  0.087978  0.000000      2.000000
  0.074651 -0.052787 -0.043100      2.000000
  0.074651  0.052787  0.043100      2.000000
 -0.049768  0.017596  0.086200      2.000000
 -0.024884  0.087978 -0.043100      2.000000
  0.000000  0.052787  0.086200      2.000000
  0.074651 -0.052787  0.043100      2.000000
  0.149303  0.000000  0.000000      2.000000
 -0.024884  0.140764  0.043100      2.000000
 -0.024884 -0.070382  0.129300      2.000000
  0.099535  0.070382 -0.086200      2.000000
  0.074651  0.000000  0.129300      2.000000
  0.049768  0.140764  0.000000      2.000000
  0.124419 -0.070382 -0.043100      2.000000
  0.099535  0.070382  0.086200      2.000000
 -0.074651  0.000000  0.129300      2.000000
 -0.024884  0.140764 -0.043100      2.000000
  0.024884  0.070382  0.129300      2.000000
  0.124419 -0.070382  0.043100      2.000000
 -0.099535  0.087978  0.000000      2.000000
 -0.024884 -0.123169  0.043100      2.000000
  0.099535  0.017596 -0.086200      2.000000
 -0.024884 -0.017595  0.129300      2.000000
 -0.049768  0.228742 -0.086200      2.000000
  0.049768 -0.123169  0.000000      2.000000
  0.174187 -0.087978 -0.043100      2.000000
 -0.174187 -0.123169  0.129300      2.000000
  0.049768  0.087978 -0.086200      2.000000
 -0.024884  0.193551 -0.043100      2.000000
  0.199070 -0.123169 -0.086200      2.000000
 -0.124419  0.017595  0.043100      2.000000
 -0.049768  0.070382  0.000000      2.000000
 -0.024884 -0.070382  0.043100      2.000000
  0.074651  0.000000 -0.043100      2.000000
  0.000000  0.000000  0.086200      2.000000
 -0.024884 -0.070382 -0.043100      2.000000
 -0.074651 -0.000000 -0.043100      2.000000
  0.099535  0.070382  0.000000      2.000000
 -0.049768  0.070382  0.086200      2.000000
  0.049768 -0.070382  0.086200      2.000000
  0.149303  0.052787  0.000000      2.000000
 -0.049768  0.123169  0.086200      2.000000
  0.024884 -0.087978  0.129300      2.000000
  0.124419  0.087978 -0.043100      2.000000
  0.074651 -0.052786  0.129300      2.000000
  0.099535  0.123169  0.000000      2.000000
  0.099535 -0.087978 -0.086200      2.000000
  0.124419  0.087978  0.043100      2.000000
 -0.074651  0.052787  0.129300      2.000000
 -0.049768  0.123169 -0.086200      2.000000
 -0.024884  0.087978  0.129300      2.000000
  0.099535 -0.087978  0.086200      2.000000
 -0.099535  0.140764  0.000000      2.000000
 -0.049768 -0.140764  0.086200      2.000000
  0.149303  0.000000 -0.086200      2.000000
  0.149303  0.105573 -0.086200      2.000000
 -0.049768  0.175955 -0.086200      2.000000
  0.149303 -0.105573 -0.086200      2.000000
  0.149303  0.105573  0.000000      1.000000
 -0.074651  0.105573  0.129300      1.000000
  0.074651 -0.105573  0.129300      1.000000
  0.124419  0.035191  0.043100      2.000000
  0.000000  0.105573  0.086200      2.000000
  0.024884 -0.035191  0.129300      2.000000
  0.124419  0.035191 -0.043100      2.000000
  0.099535 -0.035191  0.086200      2.000000
  0.074651 -0.105573 -0.043100      2.000000
  0.074651  0.105573 -0.043100      2.000000
  0.099535 -0.035191 -0.086200      2.000000
  0.074651  0.105573  0.043100      2.000000
 -0.000000  0.105573 -0.086200      2.000000
 -0.074651  0.105573 -0.043100      2.000000
 -0.024884  0.035191  0.129300      2.000000
 -0.124419  0.123169  0.043100      2.000000
  0.000000 -0.158360  0.086200      2.000000
  0.149303  0.052787 -0.086200      2.000000
 -0.174187  0.087978  0.129300      2.000000
  0.074651  0.158360 -0.043100      2.000000
  0.149303 -0.052787 -0.086200      2.000000
  0.099535 -0.193551  0.086200      2.000000
 -0.124419  0.017596  0.129300      2.000000
 -0.074651  0.158360 -0.043100      2.000000
  0.149303  0.158360 -0.086200      2.000000
  0.124419 -0.123169  0.043100      2.000000
 -0.099535 -0.123169  0.086200      2.000000
 -0.124419  0.175955  0.043100      2.000000
 -0.024884 -0.175955  0.129300      2.000000
  0.199070  0.035191 -0.086200      2.000000
  0.174187  0.070382 -0.043100      2.000000
 -0.174187  0.035191  0.129300      2.000000
  0.099535  0.175955 -0.086200      2.000000
 


--------------------------------------------------------------------------------------------------------




 Dimension of arrays:
   k-points           NKPTS =    112   k-points in BZ     NKDIM =    112   number of bands    NBANDS=      8
   number of dos      NEDOS =    301   number of ions     NIONS =      2
   non local maximal  LDIM  =      4   non local SUM 2l+1 LMDIM =      8
   total plane-waves  NPLWV =  46656
   max r-space proj   IRMAX =   6824   max aug-charges    IRDMAX=  38346
   dimension x,y,z NGX =    36 NGY =   36 NGZ =   36
   dimension x,y,z NGXF=    72 NGYF=   72 NGZF=   72
   support grid    NGXF=    72 NGYF=   72 NGZF=   72
   ions per type =               2
   NGX,Y,Z   is equivalent  to a cutoff of  15.48, 15.48, 15.48 a.u.
   NGXF,Y,Z  is equivalent  to a cutoff of  30.95, 30.95, 30.95 a.u.

 SYSTEM =  unknown system                          
 POSCAR =  Si2                                     

 Startparameter for this run:
   NWRITE =      2    write-flag & timer
   PREC   = accura    normal or accurate (medium, high low for compatibility)
   ISTART =      0    job   : 0-new  1-cont  2-samecut
   ICHARG =      2    charge: 1-file 2-atom 10-const
   ISPIN  =      1    spin polarized calculation?
   LNONCOLLINEAR =      F non collinear calculations
   LSORBIT =      F    spin-orbit coupling
   INIWAV =      1    electr: 0-lowe 1-rand  2-diag
   LASPH  =      T    aspherical Exc in radial PAW
 Electronic Relaxation 1
   ENCUT  =  680.0 eV  49.98 Ry    7.07 a.u.   8.22  8.22  8.22*2*pi/ulx,y,z
   ENINI  =  680.0     initial cutoff
   ENAUG  = 1360.0 eV  augmentation charge cutoff
   NELM   =    200;   NELMIN=  2; NELMDL= -5     # of ELM steps 
   EDIFF  = 0.1E-04   stopping-criterion for ELM
   LREAL  =      T    real-space projection
   NLSPLINE    = F    spline interpolate recip. space projectors
   LCOMPAT=      F    compatible to vasp.4.4
   GGA_COMPAT  = T    GGA compatible to vasp.4.4-vasp.4.6
   LMAXPAW     = -100 max onsite density
   LMAXMIX     =    2 max onsite mixed and CHGCAR
   VOSKOWN=      0    Vosko Wilk Nusair interpolation
   ROPT   =   -0.00025
 Ionic relaxation
   EDIFFG = -.2E-01   stopping-criterion for IOM
   NSW    =      1    number of steps for IOM
   NBLOCK =      1;   KBLOCK =      1    inner block; outer block 
   IBRION =     -1    ionic relax: 0-MD 1-quasi-New 2-CG
   NFREE  =      0    steps in history (QN), initial steepest desc. (CG)
   ISIF   =      3    stress and relaxation
   IWAVPR =     10    prediction:  0-non 1-charg 2-wave 3-comb
   ISYM   =      2    0-nonsym 1-usesym 2-fastsym
   LCORR  =      T    Harris-Foulkes like correction to forces

   POTIM  = 0.5000    time-step for ionic-motion
   TEIN   =    0.0    initial temperature
   TEBEG  =    0.0;   TEEND  =   0.0 temperature during run
   SMASS  =  -3.00    Nose mass-parameter (am)
   estimated Nose-frequenzy (Omega)   =  0.10E-29 period in steps = 0.13E+47 mass=  -0.342E-27a.u.
   SCALEE = 1.0000    scale energy and forces
   NPACO  =    256;   APACO  = 16.0  distance and # of slots for P.C.
   PSTRESS=    0.0 pullay stress

  Mass of Ions in am
   POMASS =  28.09
  Ionic Valenz
   ZVAL   =   4.00
  Atomic Wigner-Seitz radii
   RWIGS  =  -1.00
  virtual crystal weights 
   VCA    =   1.00
   NELECT =       8.0000    total number of electrons
   NUPDOWN=      -1.0000    fix difference up-down

 DOS related values:
   EMIN   =  10.00;   EMAX   =-10.00  energy-range for DOS
   EFERMI =   0.00
   ISMEAR =    -5;   SIGMA  =   0.05  broadening in eV -4-tet -1-fermi 0-gaus

 Electronic relaxation 2 (details)
   IALGO  =     38    algorithm
   LDIAG  =      T    sub-space diagonalisation (order eigenvalues)
   LSUBROT=      F    optimize rotation matrix (better conditioning)
   TURBO    =      0    0=normal 1=particle mesh
   IRESTART =      0    0=no restart 2=restart with 2 vectors
   NREBOOT  =      0    no. of reboots
   NMIN     =      0    reboot dimension
   EREF     =   0.00    reference energy to select bands
   IMIX   =      4    mixing-type and parameters
     AMIX     =   0.40;   BMIX     =  1.00
     AMIX_MAG =   1.60;   BMIX_MAG =  1.00
     AMIN     =   0.10
     WC   =   100.;   INIMIX=   1;  MIXPRE=   1;  MAXMIX= -45

 Intra band minimization:
   WEIMIN = 0.0000     energy-eigenvalue tresh-hold
   EBREAK =  0.31E-06  absolut break condition
   DEPER  =   0.30     relativ break condition  

   TIME   =   0.40     timestep for ELM

  volume/ion in A,a.u.               =      20.44       137.96
  Fermi-wavevector in a.u.,A,eV,Ry     =   0.950397  1.795990 12.289528  0.903255
  Thomas-Fermi vector in A             =   2.078770
 
 Write flags
   LWAVE        =      F    write WAVECAR
   LDOWNSAMPLE  =      F    k-point downsampling of WAVECAR
   LCHARG       =      T    write CHGCAR
   LVTOT        =      T    write LOCPOT, total local potential
   LVHAR        =      F    write LOCPOT, Hartree potential only
   LELF         =      T    write electronic localiz. function (ELF)
   LORBIT       =     11    0 simple, 1 ext, 2 COOP (PROOUT), +10 PAW based schemes


 Dipole corrections
   LMONO  =      F    monopole corrections only (constant potential shift)
   LDIPOL =      F    correct potential (dipole corrections)
   IDIPOL =      0    1-x, 2-y, 3-z, 4-all directions 
   EPSILON=  1.0000000 bulk dielectric constant

 Exchange correlation treatment:
   GGA     =    --    GGA type
   LEXCH   =     8    internal setting for exchange type
   VOSKOWN=      0    Vosko Wilk Nusair interpolation
   LHFCALC =     F    Hartree Fock is set to
   LHFONE  =     F    Hartree Fock one center treatment
   AEXX    =    0.0000 exact exchange contribution

 Linear response parameters
   LEPSILON=     F    determine dielectric tensor
   LRPA    =     F    only Hartree local field effects (RPA)
   LNABLA  =     F    use nabla operator in PAW spheres
   LVEL    =     F    velocity operator in full k-point grid
   LINTERFAST=   F  fast interpolation
   KINTER  =     0    interpolate to denser k-point grid
   CSHIFT  =0.1000    complex shift for real part using Kramers Kronig
   OMEGAMAX=  -1.0    maximum frequency
   DEG_THRESHOLD= 0.2000000E-02 threshold for treating states as degnerate
   RTIME   =   -0.100 relaxation time in fs
  (WPLASMAI=    0.000 imaginary part of plasma frequency in eV, 0.658/RTIME)
   DFIELD  = 0.0000000 0.0000000 0.0000000 field for delta impulse in time
 
 Orbital magnetization related:
   ORBITALMAG=     F  switch on orbital magnetization
   LCHIMAG   =     F  perturbation theory with respect to B field
   DQ        =  0.001000  dq finite difference perturbation B field
   LLRAUG    =     F  two centre corrections for induced B field



--------------------------------------------------------------------------------------------------------


 Static calculation
 charge density and potential will be updated during run
 non-spin polarized calculation
 Variant of blocked Davidson
 Davidson routine will perform the subspace rotation
 perform sub-space diagonalisation
    after iterative eigenvector-optimisation
 modified Broyden-mixing scheme, WC =      100.0
 initial mixing is a Kerker type mixing with AMIX =  0.4000 and BMIX =      1.0000
 Hartree-type preconditioning will be used
 using additional bands            4
 real space projection scheme for non local part
 use partial core corrections
 calculate Harris-corrections to forces 
   (improved forces if not selfconsistent)
 use gradient corrections 
 use of overlap-Matrix (Vanderbilt PP)
 Fermi weights with tetrahedron method with Bloechl corrections


--------------------------------------------------------------------------------------------------------


  energy-cutoff  :      680.00
  volume of cell :       40.89
      direct lattice vectors                 reciprocal lattice vectors
     3.348898000  0.000000000  1.933487000     0.298605691 -0.105573000  0.000000000
     1.116299000  3.157372000  1.933487000     0.000000000  0.316719094  0.000000000
     0.000000000  0.000000000  3.866975000    -0.149302807 -0.105573020  0.258600069

  length of vectors
     3.866974243  3.866974707  3.866975000     0.316719145  0.316719094  0.316719096


 
 k-points in units of 2pi/SCALE and weight: pymatgen with grid density = 607 / numbe
   0.00000000  0.00000000  0.00000000       0.005
   0.04976762 -0.01759550  0.00000000       0.009
  -0.00000000  0.05278652  0.00000000       0.009
  -0.02488380 -0.01759550  0.04310001       0.009
   0.02488381  0.01759551  0.04310001       0.009
   0.09953523 -0.03519100  0.00000000       0.009
  -0.00000000  0.10557303  0.00000000       0.009
  -0.04976760 -0.03519101  0.08620002       0.009
   0.04976763  0.03519102  0.08620002       0.009
   0.14930285 -0.05278650  0.00000000       0.005
  -0.00000000  0.15835955  0.00000000       0.005
  -0.07465140 -0.05278651  0.12930003       0.005
   0.07465144  0.05278654  0.12930003       0.005
   0.04976762  0.03519102  0.00000000       0.009
  -0.02488380  0.03519101  0.04310001       0.009
   0.02488381 -0.03519100  0.04310001       0.009
   0.09953523  0.01759552  0.00000000       0.009
  -0.02488380  0.08797753  0.04310001       0.009
   0.00000001 -0.05278651  0.08620002       0.009
   0.07465142  0.05278652 -0.04310001       0.009
   0.04976763 -0.01759549  0.08620002       0.009
   0.04976762  0.08797753  0.00000000       0.009
   0.07465142 -0.05278651 -0.04310001       0.009
   0.07465143  0.05278653  0.04310001       0.009
  -0.04976760  0.01759551  0.08620002       0.009
  -0.02488381  0.08797752 -0.04310001       0.009
   0.00000001  0.05278652  0.08620002       0.009
   0.07465143 -0.05278650  0.04310001       0.009
   0.14930285  0.00000002  0.00000000       0.009
  -0.02488380  0.14076404  0.04310001       0.009
  -0.02488379 -0.07038201  0.12930003       0.009
   0.09953522  0.07038202 -0.08620002       0.009
   0.07465144  0.00000002  0.12930003       0.009
   0.04976762  0.14076405  0.00000000       0.009
   0.12441903 -0.07038201 -0.04310001       0.009
   0.09953524  0.07038204  0.08620002       0.009
  -0.07465140  0.00000001  0.12930003       0.009
  -0.02488381  0.14076403 -0.04310001       0.009
   0.02488383  0.07038204  0.12930003       0.009
   0.12441904 -0.07038200  0.04310001       0.009
  -0.09953523  0.08797752  0.00000000       0.009
  -0.02488380 -0.12316853  0.04310001       0.009
   0.09953522  0.01759551 -0.08620002       0.009
  -0.02488379 -0.01759549  0.12930003       0.009
  -0.04976763  0.22874155 -0.08620002       0.009
   0.04976762 -0.12316853  0.00000000       0.009
   0.17418665 -0.08797751 -0.04310001       0.009
  -0.17418663 -0.12316854  0.12930003       0.009
   0.04976760  0.08797752 -0.08620002       0.009
  -0.02488381  0.19355055 -0.04310001       0.009
   0.19907045 -0.12316852 -0.08620002       0.009
  -0.12441903  0.01759550  0.04310001       0.009
  -0.04976762  0.07038202  0.00000000       0.009
  -0.02488380 -0.07038202  0.04310001       0.009
   0.07465142  0.00000000 -0.04310001       0.009
   0.00000001  0.00000001  0.08620002       0.009
  -0.02488381 -0.07038203 -0.04310001       0.009
  -0.07465143 -0.00000001 -0.04310001       0.009
   0.09953523  0.07038203  0.00000000       0.009
  -0.04976760  0.07038202  0.08620002       0.009
   0.04976763 -0.07038201  0.08620002       0.009
   0.14930285  0.05278653  0.00000000       0.009
  -0.04976760  0.12316854  0.08620002       0.009
   0.02488383 -0.08797751  0.12930003       0.009
   0.12441903  0.08797753 -0.04310001       0.009
   0.07465144 -0.05278649  0.12930003       0.009
   0.09953523  0.12316855  0.00000000       0.009
   0.09953522 -0.08797752 -0.08620002       0.009
   0.12441904  0.08797754  0.04310001       0.009
  -0.07465140  0.05278652  0.12930003       0.009
  -0.04976763  0.12316852 -0.08620002       0.009
  -0.02488379  0.08797754  0.12930003       0.009
   0.09953524 -0.08797751  0.08620002       0.009
  -0.09953523  0.14076403  0.00000000       0.009
  -0.04976760 -0.14076404  0.08620002       0.009
   0.14930283  0.00000001 -0.08620002       0.009
   0.14930283  0.10557304 -0.08620002       0.009
  -0.04976763  0.17595504 -0.08620002       0.009
   0.14930283 -0.10557302 -0.08620002       0.009
   0.14930285  0.10557305  0.00000000       0.005
  -0.07465140  0.10557304  0.12930003       0.005
   0.07465144 -0.10557301  0.12930003       0.005
   0.12441904  0.03519103  0.04310001       0.009
   0.00000001  0.10557304  0.08620002       0.009
   0.02488383 -0.03519099  0.12930003       0.009
   0.12441903  0.03519102 -0.04310001       0.009
   0.09953524 -0.03519099  0.08620002       0.009
   0.07465142 -0.10557303 -0.04310001       0.009
   0.07465142  0.10557303 -0.04310001       0.009
   0.09953522 -0.03519101 -0.08620002       0.009
   0.07465143  0.10557304  0.04310001       0.009
  -0.00000001  0.10557302 -0.08620002       0.009
  -0.07465143  0.10557302 -0.04310001       0.009
  -0.02488379  0.03519102  0.12930003       0.009
  -0.12441903  0.12316853  0.04310001       0.009
   0.00000001 -0.15835954  0.08620002       0.009
   0.14930283  0.05278652 -0.08620002       0.009
  -0.17418663  0.08797752  0.12930003       0.009
   0.07465142  0.15835955 -0.04310001       0.009
   0.14930283 -0.05278651 -0.08620002       0.009
   0.09953524 -0.19355054  0.08620002       0.009
  -0.12441902  0.01759551  0.12930003       0.009
  -0.07465143  0.15835953 -0.04310001       0.009
   0.14930283  0.15835955 -0.08620002       0.009
   0.12441904 -0.12316852  0.04310001       0.009
  -0.09953522 -0.12316854  0.08620002       0.009
  -0.12441903  0.17595504  0.04310001       0.009
  -0.02488379 -0.17595504  0.12930003       0.009
   0.19907045  0.03519102 -0.08620002       0.009
   0.17418665  0.07038203 -0.04310001       0.009
  -0.17418663  0.03519101  0.12930003       0.009
   0.09953522  0.17595505 -0.08620002       0.009
 
 k-points in reciprocal lattice and weights: pymatgen with grid density = 607 / numbe
   0.00000000  0.00000000  0.00000000       0.005
   0.16666667  0.00000000  0.00000000       0.009
  -0.00000000  0.16666667  0.00000000       0.009
   0.00000000  0.00000000  0.16666667       0.009
   0.16666667  0.16666667  0.16666667       0.009
   0.33333333  0.00000000  0.00000000       0.009
   0.00000000  0.33333333  0.00000000       0.009
   0.00000000  0.00000000  0.33333333       0.009
   0.33333333  0.33333333  0.33333333       0.009
   0.50000000  0.00000000  0.00000000       0.005
   0.00000000  0.50000000  0.00000000       0.005
  -0.00000000  0.00000000  0.50000000       0.005
   0.50000000  0.50000000  0.50000000       0.005
   0.16666667  0.16666667  0.00000000       0.009
   0.00000000  0.16666667  0.16666667       0.009
   0.16666667  0.00000000  0.16666667       0.009
   0.33333333  0.16666667  0.00000000       0.009
   0.00000000  0.33333333  0.16666667       0.009
   0.16666667  0.00000000  0.33333333       0.009
   0.16666667  0.16666667 -0.16666667       0.009
   0.33333333  0.16666667  0.33333333       0.009
   0.16666667  0.33333333  0.00000000       0.009
   0.16666667 -0.16666667 -0.16666667       0.009
   0.33333333  0.33333333  0.16666667       0.009
   0.00000000  0.16666667  0.33333333       0.009
  -0.16666667  0.16666667 -0.16666667       0.009
   0.16666667  0.33333333  0.33333333       0.009
   0.33333333  0.00000000  0.16666667       0.009
   0.50000000  0.16666667  0.00000000       0.009
   0.00000000  0.50000000  0.16666667       0.009
   0.16666667  0.00000000  0.50000000       0.009
   0.16666667  0.16666667 -0.33333333       0.009
   0.50000000  0.33333333  0.50000000       0.009
   0.16666667  0.50000000  0.00000000       0.009
   0.33333333 -0.16666667 -0.16666667       0.009
   0.50000000  0.50000000  0.33333333       0.009
  -0.00000000  0.16666667  0.50000000       0.009
  -0.16666667  0.33333333 -0.16666667       0.009
   0.33333333  0.50000000  0.50000000       0.009
   0.50000000  0.00000000  0.16666667       0.009
  -0.33333333  0.16666667  0.00000000       0.009
   0.00000000 -0.33333333  0.16666667       0.009
   0.16666667 -0.00000000 -0.33333333       0.009
   0.16666667  0.16666667  0.50000000       0.009
  -0.33333333  0.50000000 -0.33333333       0.009
   0.16666667 -0.33333333  0.00000000       0.009
   0.50000000 -0.16666667 -0.16666667       0.009
  -0.33333333 -0.33333333  0.50000000       0.009
  -0.00000000  0.16666667 -0.33333333       0.009
  -0.16666667  0.50000000 -0.16666667       0.009
   0.50000000 -0.33333333 -0.33333333       0.009
  -0.33333333 -0.00000000  0.16666667       0.009
  -0.16666667  0.16666667  0.00000000       0.009
   0.00000000 -0.16666667  0.16666667       0.009
   0.16666667  0.00000000 -0.16666667       0.009
   0.16666667  0.16666667  0.33333333       0.009
  -0.16666667 -0.33333333 -0.16666667       0.009
  -0.33333333 -0.16666667 -0.16666667       0.009
   0.33333333  0.33333333  0.00000000       0.009
   0.00000000  0.33333333  0.33333333       0.009
   0.33333333  0.00000000  0.33333333       0.009
   0.50000000  0.33333333  0.00000000       0.009
   0.00000000  0.50000000  0.33333333       0.009
   0.33333333  0.00000000  0.50000000       0.009
   0.33333333  0.33333333 -0.16666667       0.009
   0.50000000  0.16666667  0.50000000       0.009
   0.33333333  0.50000000  0.00000000       0.009
   0.16666667 -0.33333333 -0.33333333       0.009
   0.50000000  0.50000000  0.16666667       0.009
  -0.00000000  0.33333333  0.50000000       0.009
  -0.33333333  0.16666667 -0.33333333       0.009
   0.16666667  0.50000000  0.50000000       0.009
   0.50000000  0.00000000  0.33333333       0.009
  -0.33333333  0.33333333  0.00000000       0.009
   0.00000000 -0.33333333  0.33333333       0.009
   0.33333333 -0.00000000 -0.33333333       0.009
   0.33333333  0.33333333 -0.33333333       0.009
  -0.33333333  0.33333333 -0.33333333       0.009
   0.33333333 -0.33333333 -0.33333333       0.009
   0.50000000  0.50000000  0.00000000       0.005
  -0.00000000  0.50000000  0.50000000       0.005
   0.50000000  0.00000000  0.50000000       0.005
   0.50000000  0.33333333  0.16666667       0.009
   0.16666667  0.50000000  0.33333333       0.009
   0.33333333  0.16666667  0.50000000       0.009
   0.33333333  0.16666667 -0.16666667       0.009
   0.50000000  0.16666667  0.33333333       0.009
   0.16666667 -0.33333333 -0.16666667       0.009
   0.16666667  0.33333333 -0.16666667       0.009
   0.16666667 -0.16666667 -0.33333333       0.009
   0.33333333  0.50000000  0.16666667       0.009
  -0.16666667  0.16666667 -0.33333333       0.009
  -0.33333333  0.16666667 -0.16666667       0.009
   0.16666667  0.33333333  0.50000000       0.009
  -0.33333333  0.33333333  0.16666667       0.009
   0.16666667 -0.33333333  0.33333333       0.009
   0.33333333  0.16666667 -0.33333333       0.009
  -0.33333333  0.33333333  0.50000000       0.009
   0.16666667  0.50000000 -0.16666667       0.009
   0.33333333 -0.16666667 -0.33333333       0.009
   0.50000000 -0.33333333  0.33333333       0.009
  -0.16666667  0.16666667  0.50000000       0.009
  -0.33333333  0.33333333 -0.16666667       0.009
   0.33333333  0.50000000 -0.33333333       0.009
   0.50000000 -0.16666667  0.16666667       0.009
  -0.16666667 -0.33333333  0.33333333       0.009
  -0.33333333  0.50000000  0.16666667       0.009
   0.16666667 -0.33333333  0.50000000       0.009
   0.50000000  0.16666667 -0.33333333       0.009
   0.50000000  0.33333333 -0.16666667       0.009
  -0.33333333  0.16666667  0.50000000       0.009
   0.16666667  0.50000000 -0.33333333       0.009
 
 position of ions in fractional coordinates (direct lattice) 
   0.25084800  0.23779700  0.25213400
   0.99915200  0.01220300  0.99786600
 
 position of ions in cartesian coordinates  (Angst):
   1.10551692  0.75081359  1.91978463
   3.35968033  0.03852941  5.81416462
 


--------------------------------------------------------------------------------------------------------


 k-point   1 :   0.0000 0.0000 0.0000  plane waves:    1639
 k-point   2 :   0.1667 0.0000 0.0000  plane waves:    1642
 k-point   3 :  -0.0000 0.1667 0.0000  plane waves:    1642
 k-point   4 :   0.0000 0.0000 0.1667  plane waves:    1642
 k-point   5 :   0.1667 0.1667 0.1667  plane waves:    1642
 k-point   6 :   0.3333 0.0000 0.0000  plane waves:    1634
 k-point   7 :   0.0000 0.3333 0.0000  plane waves:    1634
 k-point   8 :   0.0000 0.0000 0.3333  plane waves:    1634
 k-point   9 :   0.3333 0.3333 0.3333  plane waves:    1634
 k-point  10 :   0.5000 0.0000 0.0000  plane waves:    1676
 k-point  11 :   0.0000 0.5000 0.0000  plane waves:    1676
 k-point  12 :  -0.0000 0.0000 0.5000  plane waves:    1676
 k-point  13 :   0.5000 0.5000 0.5000  plane waves:    1676
 k-point  14 :   0.1667 0.1667 0.0000  plane waves:    1647
 k-point  15 :   0.0000 0.1667 0.1667  plane waves:    1647
 k-point  16 :   0.1667 0.0000 0.1667  plane waves:    1647
 k-point  17 :   0.3333 0.1667 0.0000  plane waves:    1651
 k-point  18 :   0.0000 0.3333 0.1667  plane waves:    1651
 k-point  19 :   0.1667 0.0000 0.3333  plane waves:    1651
 k-point  20 :   0.1667 0.1667-0.1667  plane waves:    1651
 k-point  21 :   0.3333 0.1667 0.3333  plane waves:    1651
 k-point  22 :   0.1667 0.3333 0.0000  plane waves:    1651
 k-point  23 :   0.1667-0.1667-0.1667  plane waves:    1651
 k-point  24 :   0.3333 0.3333 0.1667  plane waves:    1651
 k-point  25 :   0.0000 0.1667 0.3333  plane waves:    1651
 k-point  26 :  -0.1667 0.1667-0.1667  plane waves:    1651
 k-point  27 :   0.1667 0.3333 0.3333  plane waves:    1651
 k-point  28 :   0.3333 0.0000 0.1667  plane waves:    1651
 k-point  29 :   0.5000 0.1667 0.0000  plane waves:    1641
 k-point  30 :   0.0000 0.5000 0.1667  plane waves:    1641
 k-point  31 :   0.1667 0.0000 0.5000  plane waves:    1641
 k-point  32 :   0.1667 0.1667-0.3333  plane waves:    1641
 k-point  33 :   0.5000 0.3333 0.5000  plane waves:    1641
 k-point  34 :   0.1667 0.5000 0.0000  plane waves:    1641
 k-point  35 :   0.3333-0.1667-0.1667  plane waves:    1641
 k-point  36 :   0.5000 0.5000 0.3333  plane waves:    1641
 k-point  37 :  -0.0000 0.1667 0.5000  plane waves:    1641
 k-point  38 :  -0.1667 0.3333-0.1667  plane waves:    1641
 k-point  39 :   0.3333 0.5000 0.5000  plane waves:    1641
 k-point  40 :   0.5000 0.0000 0.1667  plane waves:    1641
 k-point  41 :  -0.3333 0.1667 0.0000  plane waves:    1644
 k-point  42 :   0.0000-0.3333 0.1667  plane waves:    1644
 k-point  43 :   0.1667-0.0000-0.3333  plane waves:    1644
 k-point  44 :   0.1667 0.1667 0.5000  plane waves:    1644
 k-point  45 :  -0.3333 0.5000-0.3333  plane waves:    1644
 k-point  46 :   0.1667-0.3333 0.0000  plane waves:    1644
 k-point  47 :   0.5000-0.1667-0.1667  plane waves:    1644
 k-point  48 :  -0.3333-0.3333 0.5000  plane waves:    1644
 k-point  49 :  -0.0000 0.1667-0.3333  plane waves:    1644
 k-point  50 :  -0.1667 0.5000-0.1667  plane waves:    1644
 k-point  51 :   0.5000-0.3333-0.3333  plane waves:    1644
 k-point  52 :  -0.3333-0.0000 0.1667  plane waves:    1644
 k-point  53 :  -0.1667 0.1667 0.0000  plane waves:    1636
 k-point  54 :   0.0000-0.1667 0.1667  plane waves:    1636
 k-point  55 :   0.1667 0.0000-0.1667  plane waves:    1636
 k-point  56 :   0.1667 0.1667 0.3333  plane waves:    1636
 k-point  57 :  -0.1667-0.3333-0.1667  plane waves:    1636
 k-point  58 :  -0.3333-0.1667-0.1667  plane waves:    1636
 k-point  59 :   0.3333 0.3333 0.0000  plane waves:    1644
 k-point  60 :   0.0000 0.3333 0.3333  plane waves:    1644
 k-point  61 :   0.3333 0.0000 0.3333  plane waves:    1644
 k-point  62 :   0.5000 0.3333 0.0000  plane waves:    1646
 k-point  63 :   0.0000 0.5000 0.3333  plane waves:    1646
 k-point  64 :   0.3333 0.0000 0.5000  plane waves:    1646
 k-point  65 :   0.3333 0.3333-0.1667  plane waves:    1646
 k-point  66 :   0.5000 0.1667 0.5000  plane waves:    1646
 k-point  67 :   0.3333 0.5000 0.0000  plane waves:    1646
 k-point  68 :   0.1667-0.3333-0.3333  plane waves:    1646
 k-point  69 :   0.5000 0.5000 0.1667  plane waves:    1646
 k-point  70 :  -0.0000 0.3333 0.5000  plane waves:    1646
 k-point  71 :  -0.3333 0.1667-0.3333  plane waves:    1646
 k-point  72 :   0.1667 0.5000 0.5000  plane waves:    1646
 k-point  73 :   0.5000 0.0000 0.3333  plane waves:    1646
 k-point  74 :  -0.3333 0.3333 0.0000  plane waves:    1652
 k-point  75 :   0.0000-0.3333 0.3333  plane waves:    1652
 k-point  76 :   0.3333-0.0000-0.3333  plane waves:    1652
 k-point  77 :   0.3333 0.3333-0.3333  plane waves:    1652
 k-point  78 :  -0.3333 0.3333-0.3333  plane waves:    1652
 k-point  79 :   0.3333-0.3333-0.3333  plane waves:    1652
 k-point  80 :   0.5000 0.5000 0.0000  plane waves:    1660
 k-point  81 :  -0.0000 0.5000 0.5000  plane waves:    1660
 k-point  82 :   0.5000 0.0000 0.5000  plane waves:    1660
 k-point  83 :   0.5000 0.3333 0.1667  plane waves:    1646
 k-point  84 :   0.1667 0.5000 0.3333  plane waves:    1646
 k-point  85 :   0.3333 0.1667 0.5000  plane waves:    1646
 k-point  86 :   0.3333 0.1667-0.1667  plane waves:    1646
 k-point  87 :   0.5000 0.1667 0.3333  plane waves:    1646
 k-point  88 :   0.1667-0.3333-0.1667  plane waves:    1646
 k-point  89 :   0.1667 0.3333-0.1667  plane waves:    1646
 k-point  90 :   0.1667-0.1667-0.3333  plane waves:    1646
 k-point  91 :   0.3333 0.5000 0.1667  plane waves:    1646
 k-point  92 :  -0.1667 0.1667-0.3333  plane waves:    1646
 k-point  93 :  -0.3333 0.1667-0.1667  plane waves:    1646
 k-point  94 :   0.1667 0.3333 0.5000  plane waves:    1646
 k-point  95 :  -0.3333 0.3333 0.1667  plane waves:    1652
 k-point  96 :   0.1667-0.3333 0.3333  plane waves:    1652
 k-point  97 :   0.3333 0.1667-0.3333  plane waves:    1652
 k-point  98 :  -0.3333 0.3333 0.5000  plane waves:    1652
 k-point  99 :   0.1667 0.5000-0.1667  plane waves:    1652
 k-point 100 :   0.3333-0.1667-0.3333  plane waves:    1652
 k-point 101 :   0.5000-0.3333 0.3333  plane waves:    1652
 k-point 102 :  -0.1667 0.1667 0.5000  plane waves:    1652
 k-point 103 :  -0.3333 0.3333-0.1667  plane waves:    1652
 k-point 104 :   0.3333 0.5000-0.3333  plane waves:    1652
 k-point 105 :   0.5000-0.1667 0.1667  plane waves:    1652
 k-point 106 :  -0.1667-0.3333 0.3333  plane waves:    1652
 k-point 107 :  -0.3333 0.5000 0.1667  plane waves:    1646
 k-point 108 :   0.1667-0.3333 0.5000  plane waves:    1646
 k-point 109 :   0.5000 0.1667-0.3333  plane waves:    1646
 k-point 110 :   0.5000 0.3333-0.1667  plane waves:    1646
 k-point 111 :  -0.3333 0.1667 0.5000  plane waves:    1646
 k-point 112 :   0.1667 0.5000-0.3333  plane waves:    1646

 maximum and minimum number of plane-waves per node :       433      383

 maximum number of plane-waves:      1676
 maximum index in each direction: 
   IXMAX=    8   IYMAX=    8   IZMAX=    8
   IXMIN=   -8   IYMIN=   -8   IZMIN=   -8


 real space projection operators:
  total allocation   :        820.38 KBytes
  max/ min on nodes  :        205.31        204.88


 parallel 3D FFT for wavefunctions:
    minimum data exchange during FFTs selected (reduces bandwidth)
 parallel 3D FFT for charge:
    minimum data exchange during FFTs selected (reduces bandwidth)


 total amount of memory used by VASP MPI-rank0    45150. kBytes
=======================================================================

   base      :      30000. kBytes
   nonlr-proj:        482. kBytes
   fftplans  :       3554. kBytes
   grid      :       5033. kBytes
   one-center:          3. kBytes
   wavefun   :       6078. kBytes
 
     INWAV:  cpu time    0.0000: real time    0.0000
 Broyden mixing: mesh for mixing (old mesh)
   NGX = 17   NGY = 17   NGZ = 17
  (NGX  = 72   NGY  = 72   NGZ  = 72)
  gives a total of   4913 points

 initial charge density was supplied:
 charge density of overlapping atoms calculated
 number of electron       8.0000000 magnetization 
 keeping initial charge density in first step


--------------------------------------------------------------------------------------------------------


 Maximum index for non-local projection operator         1641
 Maximum index for augmentation-charges         9279 (set IRDMAX)


--------------------------------------------------------------------------------------------------------


 First call to EWALD:  gamma=   0.514
 Maximum number of real-space cells 3x 3x 3
 Maximum number of reciprocal cells 3x 3x 3

    FEWALD:  cpu time    0.0010: real time    0.0010


--------------------------------------- Iteration      1(   1)  ---------------------------------------


    POTLOK:  cpu time    0.0417: real time    0.0475
    SETDIJ:  cpu time    0.0438: real time    0.0442
     EDDAV:  cpu time    1.7764: real time    1.8093
 BZINTS: Fermi energy:   10.288045;    8.000000 electrons
         Band energy: 0.219096E+02;  BLOECHL correction:   -0.297470
       DOS:  cpu time    0.0114: real time    0.0115
    --------------------------------------------
      LOOP:  cpu time    1.8734: real time    1.9125

 eigenvalue-minimisations  :  1792
 total energy-change (2. order) : 0.9634057E+01  (-0.3780763E+03)
 number of electron       8.0000000 magnetization 
 augmentation part        8.0000000 magnetization 

 Free energy of the ion-electron system (eV)
  ---------------------------------------------------
  alpha Z        PSCENC =         3.29317992
  Ewald energy   TEWEN  =      -226.86479774
  -Hartree energ DENC   =       -11.33942104
  -exchange      EXHF   =         0.00000000
  -V(xc)+E(xc)   XCENC  =       -18.68428572
  PAW double counting   =       176.24759923     -141.06103558
  entropy T*S    EENTRO =         0.00000000
  eigenvalues    EBANDS =        21.90959577
  atomic energy  EATOM  =       206.13322186
  Solvation  Ediel_sol  =         0.00000000
  ---------------------------------------------------
  free energy    TOTEN  =         9.63405670 eV

  energy without entropy =        9.63405670  energy(sigma->0) =        9.63405670


--------------------------------------------------------------------------------------------------------




--------------------------------------- Iteration      1(   2)  ---------------------------------------


     EDDAV:  cpu time    2.5796: real time    2.6176
 BZINTS: Fermi energy:    6.003271;    8.000000 electrons
         Band energy: 0.166239E+01;  BLOECHL correction:   -0.000012
       DOS:  cpu time    0.0064: real time    0.0064
    --------------------------------------------
      LOOP:  cpu time    2.5859: real time    2.6240

 eigenvalue-minimisations  :  2624
 total energy-change (2. order) :-0.2024720E+02  (-0.2003980E+02)
 number of electron       8.0000000 magnetization 
 augmentation part        8.0000000 magnetization 

 Free energy of the ion-electron system (eV)
  ---------------------------------------------------
  alpha Z        PSCENC =         3.29317992
  Ewald energy   TEWEN  =      -226.86479774
  -Hartree energ DENC   =       -11.33942104
  -exchange      EXHF   =         0.00000000
  -V(xc)+E(xc)   XCENC  =       -18.68428572
  PAW double counting   =       176.24759923     -141.06103558
  entropy T*S    EENTRO =         0.00000000
  eigenvalues    EBANDS =         1.66239177
  atomic energy  EATOM  =       206.13322186
  Solvation  Ediel_sol  =         0.00000000
  ---------------------------------------------------
  free energy    TOTEN  =       -10.61314730 eV

  energy without entropy =      -10.61314730  energy(sigma->0) =      -10.61314730


--------------------------------------------------------------------------------------------------------




--------------------------------------- Iteration      1(   3)  ---------------------------------------


     EDDAV:  cpu time    2.2683: real time    2.3096
 BZINTS: Fermi energy:    5.971593;    8.000000 electrons
         Band energy: 0.132169E+01;  BLOECHL correction:   -0.000000
       DOS:  cpu time    0.0068: real time    0.0070
    --------------------------------------------
      LOOP:  cpu time    2.2751: real time    2.3166

 eigenvalue-minimisations  :  2320
 total energy-change (2. order) :-0.3407034E+00  (-0.3407136E+00)
 number of electron       8.0000000 magnetization 
 augmentation part        8.0000000 magnetization 

 Free energy of the ion-electron system (eV)
  ---------------------------------------------------
  alpha Z        PSCENC =         3.29317992
  Ewald energy   TEWEN  =      -226.86479774
  -Hartree energ DENC   =       -11.33942104
  -exchange      EXHF   =         0.00000000
  -V(xc)+E(xc)   XCENC  =       -18.68428572
  PAW double counting   =       176.24759923     -141.06103558
  entropy T*S    EENTRO =         0.00000000
  eigenvalues    EBANDS =         1.32168837
  atomic energy  EATOM  =       206.13322186
  Solvation  Ediel_sol  =         0.00000000
  ---------------------------------------------------
  free energy    TOTEN  =       -10.95385070 eV

  energy without entropy =      -10.95385070  energy(sigma->0) =      -10.95385070


--------------------------------------------------------------------------------------------------------




--------------------------------------- Iteration      1(   4)  ---------------------------------------


     EDDAV:  cpu time    2.6693: real time    2.7175
 BZINTS: Fermi energy:    5.971234;    8.000000 electrons
         Band energy: 0.131991E+01;  BLOECHL correction:    0.000000
       DOS:  cpu time    0.0060: real time    0.0060
    --------------------------------------------
      LOOP:  cpu time    2.6753: real time    2.7235

 eigenvalue-minimisations  :  2864
 total energy-change (2. order) :-0.1780331E-02  (-0.1780335E-02)
 number of electron       8.0000000 magnetization 
 augmentation part        8.0000000 magnetization 

 Free energy of the ion-electron system (eV)
  ---------------------------------------------------
  alpha Z        PSCENC =         3.29317992
  Ewald energy   TEWEN  =      -226.86479774
  -Hartree energ DENC   =       -11.33942104
  -exchange      EXHF   =         0.00000000
  -V(xc)+E(xc)   XCENC  =       -18.68428572
  PAW double counting   =       176.24759923     -141.06103558
  entropy T*S    EENTRO =         0.00000000
  eigenvalues    EBANDS =         1.31990804
  atomic energy  EATOM  =       206.13322186
  Solvation  Ediel_sol  =         0.00000000
  ---------------------------------------------------
  free energy    TOTEN  =       -10.95563103 eV

  energy without entropy =      -10.95563103  energy(sigma->0) =      -10.95563103


--------------------------------------------------------------------------------------------------------




--------------------------------------- Iteration      1(   5)  ---------------------------------------


     EDDAV:  cpu time    2.4126: real time    2.4497
 BZINTS: Fermi energy:    5.971347;    8.000000 electrons
         Band energy: 0.131991E+01;  BLOECHL correction:    0.000000
       DOS:  cpu time    0.0053: real time    0.0054
    CHARGE:  cpu time    0.0734: real time    0.0745
    MIXING:  cpu time    0.0022: real time    0.0023
    --------------------------------------------
      LOOP:  cpu time    2.4936: real time    2.5319

 eigenvalue-minimisations  :  2272
 total energy-change (2. order) :-0.1849003E-05  (-0.1849003E-05)
 number of electron       8.0000000 magnetization 
 augmentation part       -0.4690468 magnetization 

 Broyden mixing:
  rms(total) = 0.47749E+00    rms(broyden)= 0.47749E+00
  rms(prec ) = 0.93916E+00
  weight for this iteration     100.00

 Free energy of the ion-electron system (eV)
  ---------------------------------------------------
  alpha Z        PSCENC =         3.29317992
  Ewald energy   TEWEN  =      -226.86479774
  -Hartree energ DENC   =       -11.33942104
  -exchange      EXHF   =         0.00000000
  -V(xc)+E(xc)   XCENC  =       -18.68428572
  PAW double counting   =       176.24759923     -141.06103558
  entropy T*S    EENTRO =         0.00000000
  eigenvalues    EBANDS =         1.31990619
  atomic energy  EATOM  =       206.13322186
  Solvation  Ediel_sol  =         0.00000000
  ---------------------------------------------------
  free energy    TOTEN  =       -10.95563288 eV

  energy without entropy =      -10.95563288  energy(sigma->0) =      -10.95563288


--------------------------------------------------------------------------------------------------------




--------------------------------------- Iteration      1(   6)  ---------------------------------------


    POTLOK:  cpu time    0.0507: real time    0.0528
    SETDIJ:  cpu time    0.0494: real time    0.0523
     EDDAV:  cpu time    2.4256: real time    2.4986
 BZINTS: Fermi energy:    6.050561;    8.000000 electrons
         Band energy: 0.279219E+01;  BLOECHL correction:   -0.000000
       DOS:  cpu time    0.0069: real time    0.0099
    CHARGE:  cpu time    0.1153: real time    0.1373
    MIXING:  cpu time    0.0022: real time    0.0022
    --------------------------------------------
      LOOP:  cpu time    2.6501: real time    2.7530

 eigenvalue-minimisations  :  2144
 total energy-change (2. order) : 0.1196194E+00  (-0.7782941E-02)
 number of electron       8.0000000 magnetization 
 augmentation part       -0.4633505 magnetization 

 Broyden mixing:
  rms(total) = 0.29157E+00    rms(broyden)= 0.29157E+00
  rms(prec ) = 0.55938E+00
  weight for this iteration     100.00

 eigenvalues of (default mixing * dielectric matrix)
  average eigenvalue GAMMA=   2.5590
  2.5590

 Free energy of the ion-electron system (eV)
  ---------------------------------------------------
  alpha Z        PSCENC =         3.29317992
  Ewald energy   TEWEN  =      -226.86479774
  -Hartree energ DENC   =       -12.81974400
  -exchange      EXHF   =         0.00000000
  -V(xc)+E(xc)   XCENC  =       -18.45277293
  PAW double counting   =       371.67137768     -336.58867024
  entropy T*S    EENTRO =         0.00000000
  eigenvalues    EBANDS =         2.79219203
  atomic energy  EATOM  =       206.13322186
  Solvation  Ediel_sol  =         0.00000000
  ---------------------------------------------------
  free energy    TOTEN  =       -10.83601343 eV

  energy without entropy =      -10.83601343  energy(sigma->0) =      -10.83601343


--------------------------------------------------------------------------------------------------------




--------------------------------------- Iteration      1(   7)  ---------------------------------------


    POTLOK:  cpu time    0.0498: real time    0.0525
    SETDIJ:  cpu time    0.0467: real time    0.0477
     EDDAV:  cpu time    2.8109: real time    3.0267
 BZINTS: Fermi energy:    6.199229;    8.000000 electrons
         Band energy: 0.502624E+01;  BLOECHL correction:    0.000000
       DOS:  cpu time    0.0050: real time    0.0051
    CHARGE:  cpu time    0.0625: real time    0.0628
    MIXING:  cpu time    0.0018: real time    0.0018
    --------------------------------------------
      LOOP:  cpu time    2.9766: real time    3.1966

 eigenvalue-minimisations  :  2288
 total energy-change (2. order) : 0.5518321E-01  (-0.1500301E-01)
 number of electron       8.0000000 magnetization 
 augmentation part       -0.4564358 magnetization 

 Broyden mixing:
  rms(total) = 0.17691E-01    rms(broyden)= 0.17691E-01
  rms(prec ) = 0.41017E-01
  weight for this iteration     100.00

 eigenvalues of (default mixing * dielectric matrix)
  average eigenvalue GAMMA=   2.0569
  1.7361  2.3777

 Free energy of the ion-electron system (eV)
  ---------------------------------------------------
  alpha Z        PSCENC =         3.29317992
  Ewald energy   TEWEN  =      -226.86479774
  -Hartree energ DENC   =       -15.25424140
  -exchange      EXHF   =         0.00000000
  -V(xc)+E(xc)   XCENC  =       -18.06313873
  PAW double counting   =       834.96952126     -800.02081631
  entropy T*S    EENTRO =         0.00000000
  eigenvalues    EBANDS =         5.02624092
  atomic energy  EATOM  =       206.13322186
  Solvation  Ediel_sol  =         0.00000000
  ---------------------------------------------------
  free energy    TOTEN  =       -10.78083023 eV

  energy without entropy =      -10.78083023  energy(sigma->0) =      -10.78083023


--------------------------------------------------------------------------------------------------------




--------------------------------------- Iteration      1(   8)  ---------------------------------------


    POTLOK:  cpu time    0.0411: real time    0.0416
    SETDIJ:  cpu time    0.0405: real time    0.0407
     EDDAV:  cpu time    1.9067: real time    1.9338
 BZINTS: Fermi energy:    6.206400;    8.000000 electrons
         Band energy: 0.492941E+01;  BLOECHL correction:   -0.000000
       DOS:  cpu time    0.0048: real time    0.0048
    CHARGE:  cpu time    0.0675: real time    0.0686
    MIXING:  cpu time    0.0027: real time    0.0027
    --------------------------------------------
      LOOP:  cpu time    2.0633: real time    2.0922

 eigenvalue-minimisations  :  1928
 total energy-change (2. order) :-0.1165500E-02  (-0.3938221E-03)
 number of electron       8.0000000 magnetization 
 augmentation part       -0.4573637 magnetization 

 Broyden mixing:
  rms(total) = 0.72289E-02    rms(broyden)= 0.72289E-02
  rms(prec ) = 0.13304E-01
  weight for this iteration     100.00

 eigenvalues of (default mixing * dielectric matrix)
  average eigenvalue GAMMA=   2.1810
  2.7714  1.8858  1.8858

 Free energy of the ion-electron system (eV)
  ---------------------------------------------------
  alpha Z        PSCENC =         3.29317992
  Ewald energy   TEWEN  =      -226.86479774
  -Hartree energ DENC   =       -15.18493606
  -exchange      EXHF   =         0.00000000
  -V(xc)+E(xc)   XCENC  =       -18.06332706
  PAW double counting   =       840.76286363     -805.78760643
  entropy T*S    EENTRO =         0.00000000
  eigenvalues    EBANDS =         4.92940615
  atomic energy  EATOM  =       206.13322186
  Solvation  Ediel_sol  =         0.00000000
  ---------------------------------------------------
  free energy    TOTEN  =       -10.78199573 eV

  energy without entropy =      -10.78199573  energy(sigma->0) =      -10.78199573


--------------------------------------------------------------------------------------------------------




--------------------------------------- Iteration      1(   9)  ---------------------------------------


    POTLOK:  cpu time    0.0444: real time    0.0462
    SETDIJ:  cpu time    0.0465: real time    0.0473
     EDDAV:  cpu time    2.7842: real time    2.8679
 BZINTS: Fermi energy:    6.213951;    8.000000 electrons
         Band energy: 0.496292E+01;  BLOECHL correction:   -0.000000
       DOS:  cpu time    0.0065: real time    0.0069
    CHARGE:  cpu time    0.0770: real time    0.0794
    MIXING:  cpu time    0.0017: real time    0.0017
    --------------------------------------------
      LOOP:  cpu time    2.9603: real time    3.0494

 eigenvalue-minimisations  :  2648
 total energy-change (2. order) :-0.2098602E-03  (-0.2146434E-04)
 number of electron       8.0000000 magnetization 
 augmentation part       -0.4574872 magnetization 

 Broyden mixing:
  rms(total) = 0.57414E-02    rms(broyden)= 0.57414E-02
  rms(prec ) = 0.66458E-02
  weight for this iteration     100.00

 eigenvalues of (default mixing * dielectric matrix)
  average eigenvalue GAMMA=   2.0640
  2.7402  2.3246  2.3246  0.8664

 Free energy of the ion-electron system (eV)
  ---------------------------------------------------
  alpha Z        PSCENC =         3.29317992
  Ewald energy   TEWEN  =      -226.86479774
  -Hartree energ DENC   =       -15.22982860
  -exchange      EXHF   =         0.00000000
  -V(xc)+E(xc)   XCENC  =       -18.05466569
  PAW double counting   =       843.44337988     -808.46561111
  entropy T*S    EENTRO =         0.00000000
  eigenvalues    EBANDS =         4.96291590
  atomic energy  EATOM  =       206.13322186
  Solvation  Ediel_sol  =         0.00000000
  ---------------------------------------------------
  free energy    TOTEN  =       -10.78220559 eV

  energy without entropy =      -10.78220559  energy(sigma->0) =      -10.78220559


--------------------------------------------------------------------------------------------------------




--------------------------------------- Iteration      1(  10)  ---------------------------------------


    POTLOK:  cpu time    0.0416: real time    0.0426
    SETDIJ:  cpu time    0.0447: real time    0.0455
     EDDAV:  cpu time    2.1767: real time    2.2674
 BZINTS: Fermi energy:    6.216837;    8.000000 electrons
         Band energy: 0.497167E+01;  BLOECHL correction:   -0.000000
       DOS:  cpu time    0.0044: real time    0.0044
    CHARGE:  cpu time    0.0799: real time    0.0823
    MIXING:  cpu time    0.0023: real time    0.0024
    --------------------------------------------
      LOOP:  cpu time    2.3496: real time    2.4450

 eigenvalue-minimisations  :  1984
 total energy-change (2. order) :-0.2728217E-04  (-0.3052289E-05)
 number of electron       8.0000000 magnetization 
 augmentation part       -0.4574576 magnetization 

 Broyden mixing:
  rms(total) = 0.71037E-03    rms(broyden)= 0.71037E-03
  rms(prec ) = 0.92744E-03
  weight for this iteration     100.00

 eigenvalues of (default mixing * dielectric matrix)
  average eigenvalue GAMMA=   1.9076
  2.9169  2.4403  2.0787  1.0510  1.0510

 Free energy of the ion-electron system (eV)
  ---------------------------------------------------
  alpha Z        PSCENC =         3.29317992
  Ewald energy   TEWEN  =      -226.86479774
  -Hartree energ DENC   =       -15.23893078
  -exchange      EXHF   =         0.00000000
  -V(xc)+E(xc)   XCENC  =       -18.05422465
  PAW double counting   =       832.70303001     -797.72537817
  entropy T*S    EENTRO =         0.00000000
  eigenvalues    EBANDS =         4.97166669
  atomic energy  EATOM  =       206.13322186
  Solvation  Ediel_sol  =         0.00000000
  ---------------------------------------------------
  free energy    TOTEN  =       -10.78223287 eV

  energy without entropy =      -10.78223287  energy(sigma->0) =      -10.78223287


--------------------------------------------------------------------------------------------------------




--------------------------------------- Iteration      1(  11)  ---------------------------------------


    POTLOK:  cpu time    0.0506: real time    0.0538
    SETDIJ:  cpu time    0.0478: real time    0.0487
     EDDAV:  cpu time    1.6007: real time    1.6257
 BZINTS: Fermi energy:    6.216572;    8.000000 electrons
         Band energy: 0.496967E+01;  BLOECHL correction:    0.000000
       DOS:  cpu time    0.0065: real time    0.0067
    --------------------------------------------
      LOOP:  cpu time    1.7056: real time    1.7344

 eigenvalue-minimisations  :  1344
 total energy-change (2. order) : 0.1633119E-06  (-0.8270768E-07)
 number of electron       8.0000000 magnetization 
 augmentation part       -0.4574576 magnetization 

 Free energy of the ion-electron system (eV)
  ---------------------------------------------------
  alpha Z        PSCENC =         3.29317992
  Ewald energy   TEWEN  =      -226.86479774
  -Hartree energ DENC   =       -15.23731214
  -exchange      EXHF   =         0.00000000
  -V(xc)+E(xc)   XCENC  =       -18.05434681
  PAW double counting   =       833.48192562     -798.50377343
  entropy T*S    EENTRO =         0.00000000
  eigenvalues    EBANDS =         4.96967002
  atomic energy  EATOM  =       206.13322186
  Solvation  Ediel_sol  =         0.00000000
  ---------------------------------------------------
  free energy    TOTEN  =       -10.78223270 eV

  energy without entropy =      -10.78223270  energy(sigma->0) =      -10.78223270


--------------------------------------------------------------------------------------------------------




 average (electrostatic) potential at core
  the test charge radii are     0.9892
  (the norm of the test charge is              1.0000)
       1 -83.4798       2 -83.4798
 
 
 
 E-fermi :   6.2166     XC(G=0):  -9.3239     alpha+bet :-11.7317

 Fermi energy:         6.2165716216

 k-point     1 :       0.0000    0.0000    0.0000
  band No.  band energies     occupation 
      1      -6.2004      2.00000
      2       5.2692      2.00000
      3       5.5542      2.00000
      4       6.0674      2.00000
      5       7.9199      0.00000
      6       8.1958      0.00000
      7       8.3840      0.00000
      8       8.7491      0.00000

 k-point     2 :       0.1667    0.0000    0.0000
  band No.  band energies     occupation 
      1      -5.8456      2.00000
      2       3.2252      2.00000
      3       4.9173      2.00000
      4       5.4885      2.00000
      5       7.8916      0.00000
      6       8.6062      0.00000
      7       9.0225      0.00000
      8      10.8899      0.00000

 k-point     3 :      -0.0000    0.1667    0.0000
  band No.  band energies     occupation 
      1      -5.8544      2.00000
      2       3.4955      2.00000
      3       4.9221      2.00000
      4       5.1618      2.00000
      5       7.7714      0.00000
      6       8.7011      0.00000
      7       8.9049      0.00000
      8      10.9896      0.00000

 k-point     4 :       0.0000    0.0000    0.1667
  band No.  band energies     occupation 
      1      -5.8447      2.00000
      2       3.1989      2.00000
      3       4.9389      2.00000
      4       5.4959      2.00000
      5       7.9068      0.00000
      6       8.6101      0.00000
      7       9.0188      0.00000
      8      10.8806      0.00000

 k-point     5 :       0.1667    0.1667    0.1667
  band No.  band energies     occupation 
      1      -5.8398      2.00000
      2       3.0619      2.00000
      3       5.0891      2.00000
      4       5.4911      2.00000
      5       8.0027      0.00000
      6       8.6785      0.00000
      7       8.9476      0.00000
      8      10.8263      0.00000

 k-point     6 :       0.3333    0.0000    0.0000
  band No.  band energies     occupation 
      1      -4.8493      2.00000
      2       0.3314      2.00000
      3       4.3899      2.00000
      4       4.9184      2.00000
      5       7.3062      0.00000
      6       8.8324      0.00000
      7       9.4267      0.00000
      8      13.3302      0.00000

 k-point     7 :       0.0000    0.3333    0.0000
  band No.  band energies     occupation 
      1      -4.8997      2.00000
      2       0.5819      2.00000
      3       4.4349      2.00000
      4       4.6611      2.00000
      5       7.2109      0.00000
      6       8.8766      0.00000
      7       9.1350      0.00000
      8      13.3351      0.00000

 k-point     8 :       0.0000    0.0000    0.3333
  band No.  band energies     occupation 
      1      -4.8441      2.00000
      2       0.3067      2.00000
      3       4.4047      2.00000
      4       4.9218      2.00000
      5       7.3175      0.00000
      6       8.8474      0.00000
      7       9.4367      0.00000
      8      13.3217      0.00000

 k-point     9 :       0.3333    0.3333    0.3333
  band No.  band energies     occupation 
      1      -4.8152      2.00000
      2       0.1724      2.00000
      3       4.5226      2.00000
      4       4.8929      2.00000
      5       7.3882      0.00000
      6       9.0007      0.00000
      7       9.4236      0.00000
      8      13.3541      0.00000

 k-point    10 :       0.5000    0.0000    0.0000
  band No.  band energies     occupation 
      1      -3.9178      2.00000
      2      -1.2683      2.00000
      3       4.1946      2.00000
      4       4.7212      2.00000
      5       7.0809      0.00000
      6       8.6658      0.00000
      7       9.2783      0.00000
      8      13.3100      0.00000

 k-point    11 :       0.0000    0.5000    0.0000
  band No.  band energies     occupation 
      1      -4.0647      2.00000
      2      -0.9344      2.00000
      3       4.2528      2.00000
      4       4.4781      2.00000
      5       6.9938      0.00000
      6       8.7158      0.00000
      7       8.9791      0.00000
      8      13.2009      0.00000

 k-point    12 :      -0.0000    0.0000    0.5000
  band No.  band energies     occupation 
      1      -3.9015      2.00000
      2      -1.3030      2.00000
      3       4.2078      2.00000
      4       4.7233      2.00000
      5       7.0912      0.00000
      6       8.6810      0.00000
      7       9.2888      0.00000
      8      13.3225      0.00000

 k-point    13 :       0.5000    0.5000    0.5000
  band No.  band energies     occupation 
      1      -3.8042      2.00000
      2      -1.4991      2.00000
      3       4.3175      2.00000
      4       4.6868      2.00000
      5       7.1554      0.00000
      6       8.8381      0.00000
      7       9.2773      0.00000
      8      13.3964      0.00000

 k-point    14 :       0.1667    0.1667    0.0000
  band No.  band energies     occupation 
      1      -5.7256      2.00000
      2       3.5292      2.00000
      3       4.2991      2.00000
      4       4.6462      2.00000
      5       7.3125      0.00000
      6       9.8131      0.00000
      7       9.9075      0.00000
      8       9.9707      0.00000

 k-point    15 :       0.0000    0.1667    0.1667
  band No.  band energies     occupation 
      1      -5.7255      2.00000
      2       3.5162      2.00000
      3       4.3237      2.00000
      4       4.6371      2.00000
      5       7.3135      0.00000
      6       9.8064      0.00000
      7       9.9115      0.00000
      8       9.9643      0.00000

 k-point    16 :       0.1667    0.0000    0.1667
  band No.  band energies     occupation 
      1      -5.7253      2.00000
      2       3.4762      2.00000
      3       4.4149      2.00000
      4       4.5941      2.00000
      5       7.3168      0.00000
      6       9.7923      0.00000
      7       9.9136      0.00000
      8       9.9456      0.00000

 k-point    17 :       0.3333    0.1667    0.0000
  band No.  band energies     occupation 
      1      -4.9181      2.00000
      2       1.1224      2.00000
      3       3.7385      2.00000
      4       3.9531      2.00000
      5       7.4634      0.00000
      6       9.5315      0.00000
      7      10.2967      0.00000
      8      10.8399      0.00000

 k-point    18 :       0.0000    0.3333    0.1667
  band No.  band energies     occupation 
      1      -4.9503      2.00000
      2       1.4190      2.00000
      3       3.5519      2.00000
      4       3.8214      2.00000
      5       7.4852      0.00000
      6       9.7636      0.00000
      7      10.0180      0.00000
      8      10.5653      0.00000

 k-point    19 :       0.1667    0.0000    0.3333
  band No.  band energies     occupation 
      1      -4.9231      2.00000
      2       1.1734      2.00000
      3       3.5788      2.00000
      4       4.0431      2.00000
      5       7.5916      0.00000
      6       9.5945      0.00000
      7      10.0729      0.00000
      8      10.7264      0.00000

 k-point    20 :       0.1667    0.1667   -0.1667
  band No.  band energies     occupation 
      1      -4.9292      2.00000
      2       1.2454      2.00000
      3       3.4442      2.00000
      4       4.0840      2.00000
      5       7.6723      0.00000
      6       9.6235      0.00000
      7      10.0371      0.00000
      8      10.5682      0.00000

 k-point    21 :       0.3333    0.1667    0.3333
  band No.  band energies     occupation 
      1      -4.9016      2.00000
      2       0.9904      2.00000
      3       3.8487      2.00000
      4       3.9701      2.00000
      5       7.5553      0.00000
      6       9.4437      0.00000
      7      10.3343      0.00000
      8      10.8804      0.00000

 k-point    22 :       0.1667    0.3333    0.0000
  band No.  band energies     occupation 
      1      -4.9497      2.00000
      2       1.4113      2.00000
      3       3.5831      2.00000
      4       3.7990      2.00000
      5       7.4725      0.00000
      6       9.7549      0.00000
      7      10.0407      0.00000
      8      10.5810      0.00000

 k-point    23 :       0.1667   -0.1667   -0.1667
  band No.  band energies     occupation 
      1      -4.9314      2.00000
      2       1.2641      2.00000
      3       3.4352      2.00000
      4       4.0767      2.00000
      5       7.6605      0.00000
      6       9.6375      0.00000
      7      10.0207      0.00000
      8      10.5662      0.00000

 k-point    24 :       0.3333    0.3333    0.1667
  band No.  band energies     occupation 
      1      -4.9116      2.00000
      2       1.0829      2.00000
      3       3.6238      2.00000
      4       4.0711      2.00000
      5       7.6791      0.00000
      6       9.5256      0.00000
      7      10.1449      0.00000
      8      10.7112      0.00000

 k-point    25 :       0.0000    0.1667    0.3333
  band No.  band energies     occupation 
      1      -4.9156      2.00000
      2       1.1009      2.00000
      3       3.7496      2.00000
      4       3.9637      2.00000
      5       7.4763      0.00000
      6       9.5176      0.00000
      7      10.2992      0.00000
      8      10.8496      0.00000

 k-point    26 :      -0.1667    0.1667   -0.1667
  band No.  band energies     occupation 
      1      -4.9541      2.00000
      2       1.4715      2.00000
      3       3.4086      2.00000
      4       3.9025      2.00000
      5       7.5584      0.00000
      6       9.7916      0.00000
      7       9.9494      0.00000
      8      10.4444      0.00000

 k-point    27 :       0.1667    0.3333    0.3333
  band No.  band energies     occupation 
      1      -4.9106      2.00000
      2       1.0724      2.00000
      3       3.6452      2.00000
      4       4.0639      2.00000
      5       7.6675      0.00000
      6       9.5193      0.00000
      7      10.1525      0.00000
      8      10.7337      0.00000

 k-point    28 :       0.3333    0.0000    0.1667
  band No.  band energies     occupation 
      1      -4.9263      2.00000
      2       1.2026      2.00000
      3       3.5495      2.00000
      4       4.0421      2.00000
      5       7.5914      0.00000
      6       9.6155      0.00000
      7      10.0485      0.00000
      8      10.7018      0.00000

 k-point    29 :       0.5000    0.1667    0.0000
  band No.  band energies     occupation 
      1      -3.7576      2.00000
      2      -0.9459      2.00000
[...]
      7      12.0378      0.00000
      8      12.5391      0.00000

 k-point    79 :       0.3333   -0.3333   -0.3333
  band No.  band energies     occupation 
      1      -2.9118      2.00000
      2      -1.2657      2.00000
      3       1.2676      2.00000
      4       3.6791      2.00000
      5       7.3337      0.00000
      6      11.2257      0.00000
      7      11.8887      0.00000
      8      12.6521      0.00000

 k-point    80 :       0.5000    0.5000    0.0000
  band No.  band energies     occupation 
      1      -2.3228      2.00000
      2      -1.9378      2.00000
      3       2.7194      2.00000
      4       2.9361      2.00000
      5       6.2166      0.00000
      6       6.5104      0.00000
      7      15.5186      0.00000
      8      15.6097      0.00000

 k-point    81 :      -0.0000    0.5000    0.5000
  band No.  band energies     occupation 
      1      -2.3017      2.00000
      2      -1.9625      2.00000
      3       2.7337      2.00000
      4       2.9273      2.00000
      5       6.2331      0.00000
      6       6.4916      0.00000
      7      15.5277      0.00000
      8      15.6069      0.00000

 k-point    82 :       0.5000    0.0000    0.5000
  band No.  band energies     occupation 
      1      -2.1719      2.00000
      2      -2.1039      2.00000
      3       2.7985      2.00000
      4       2.8808      2.00000
      5       6.3339      0.00000
      6       6.3831      0.00000
      7      15.5774      0.00000
      8      15.5781      0.00000

 k-point    83 :       0.5000    0.3333    0.1667
  band No.  band energies     occupation 
      1      -3.9218      2.00000
      2      -0.1387      2.00000
      3       2.1247      2.00000
      4       3.5276      2.00000
      5       8.3775      0.00000
      6       9.3643      0.00000
      7       9.9325      0.00000
      8      12.5982      0.00000

 k-point    84 :       0.1667    0.5000    0.3333
  band No.  band energies     occupation 
      1      -3.9704      2.00000
      2       0.0460      2.00000
      3       2.1398      2.00000
      4       3.3397      2.00000
      5       8.4482      0.00000
      6       9.3350      0.00000
      7       9.7807      0.00000
      8      12.5912      0.00000

 k-point    85 :       0.3333    0.1667    0.5000
  band No.  band energies     occupation 
      1      -3.9144      2.00000
      2      -0.1702      2.00000
      3       2.1380      2.00000
      4       3.5459      2.00000
      5       8.3857      0.00000
      6       9.3373      0.00000
      7       9.9597      0.00000
      8      12.5761      0.00000

 k-point    86 :       0.3333    0.1667   -0.1667
  band No.  band energies     occupation 
      1      -3.9494      2.00000
      2      -0.0277      2.00000
      3       2.0976      2.00000
      4       3.4551      2.00000
      5       8.3912      0.00000
      6       9.3601      0.00000
      7       9.8529      0.00000
      8      12.5986      0.00000

 k-point    87 :       0.5000    0.1667    0.3333
  band No.  band energies     occupation 
      1      -3.9194      2.00000
      2      -0.1513      2.00000
      3       2.1349      2.00000
      4       3.5321      2.00000
      5       8.3888      0.00000
      6       9.3367      0.00000
      7       9.9452      0.00000
      8      12.5737      0.00000

 k-point    88 :       0.1667   -0.3333   -0.1667
  band No.  band energies     occupation 
      1      -4.0020      2.00000
      2       0.1902      2.00000
      3       2.1158      2.00000
      4       3.2278      2.00000
      5       8.4886      0.00000
      6       9.2945      0.00000
      7       9.6989      0.00000
      8      12.6302      0.00000

 k-point    89 :       0.1667    0.3333   -0.1667
  band No.  band energies     occupation 
      1      -3.9977      2.00000
      2       0.1713      2.00000
      3       2.1141      2.00000
      4       3.2470      2.00000
      5       8.4761      0.00000
      6       9.3115      0.00000
      7       9.7074      0.00000
      8      12.6279      0.00000

 k-point    90 :       0.1667   -0.1667   -0.3333
  band No.  band energies     occupation 
      1      -3.9489      2.00000
      2      -0.0308      2.00000
      3       2.1003      2.00000
      4       3.4559      2.00000
      5       8.3940      0.00000
      6       9.3532      0.00000
      7       9.8560      0.00000
      8      12.5935      0.00000

 k-point    91 :       0.3333    0.5000    0.1667
  band No.  band energies     occupation 
      1      -3.9710      2.00000
      2       0.0493      2.00000
      3       2.1368      2.00000
      4       3.3390      2.00000
      5       8.4449      0.00000
      6       9.3424      0.00000
      7       9.7777      0.00000
      8      12.5961      0.00000

 k-point    92 :      -0.1667    0.1667   -0.3333
  band No.  band energies     occupation 
      1      -3.9955      2.00000
      2       0.1560      2.00000
      3       2.1293      2.00000
      4       3.2492      2.00000
      5       8.4929      0.00000
      6       9.2791      0.00000
      7       9.7174      0.00000
      8      12.6085      0.00000

 k-point    93 :      -0.3333    0.1667   -0.1667
  band No.  band energies     occupation 
      1      -4.0003      2.00000
      2       0.1782      2.00000
      3       2.1278      2.00000
      4       3.2293      2.00000
      5       8.5020      0.00000
      6       9.2697      0.00000
      7       9.7059      0.00000
      8      12.6154      0.00000

 k-point    94 :       0.1667    0.3333    0.5000
  band No.  band energies     occupation 
      1      -3.9162      2.00000
      2      -0.1606      2.00000
      3       2.1304      2.00000
      4       3.5424      2.00000
      5       8.3771      0.00000
      6       9.3582      0.00000
      7       9.9500      0.00000
      8      12.5952      0.00000

 k-point    95 :      -0.3333    0.3333    0.1667
  band No.  band energies     occupation 
      1      -3.0072      2.00000
      2      -1.1591      2.00000
      3       1.7146      2.00000
      4       2.9128      2.00000
      5       8.8444      0.00000
      6       9.2569      0.00000
      7      11.6249      0.00000
      8      12.0566      0.00000

 k-point    96 :       0.1667   -0.3333    0.3333
  band No.  band energies     occupation 
      1      -3.1305      2.00000
      2      -0.8884      2.00000
      3       1.5969      2.00000
      4       2.8845      2.00000
      5       8.9033      0.00000
      6       9.0324      0.00000
      7      11.9146      0.00000
      8      11.9990      0.00000

 k-point    97 :       0.3333    0.1667   -0.3333
  band No.  band energies     occupation 
      1      -2.9469      2.00000
      2      -1.2446      2.00000
      3       1.5666      2.00000
      4       3.1068      2.00000
      5       8.9754      0.00000
      6       9.2473      0.00000
      7      11.6732      0.00000
      8      11.9309      0.00000

 k-point    98 :      -0.3333    0.3333    0.5000
  band No.  band energies     occupation 
      1      -2.8955      2.00000
      2      -1.3722      2.00000
      3       1.8035      2.00000
      4       2.9261      2.00000
      5       8.9199      0.00000
      6       9.3075      0.00000
      7      11.4292      0.00000
      8      12.1428      0.00000

 k-point    99 :       0.1667    0.5000   -0.1667
  band No.  band energies     occupation 
      1      -3.1538      2.00000
      2      -0.8533      2.00000
      3       1.6970      2.00000
      4       2.7613      2.00000
      5       8.7749      0.00000
      6       9.0908      0.00000
      7      11.9277      0.00000
      8      12.0533      0.00000

 k-point   100 :       0.3333   -0.1667   -0.3333
  band No.  band energies     occupation 
      1      -2.9618      2.00000
      2      -1.2159      2.00000
      3       1.5556      2.00000
      4       3.1048      2.00000
      5       8.9645      0.00000
      6       9.2391      0.00000
      7      11.7061      0.00000
      8      11.9227      0.00000

 k-point   101 :       0.5000   -0.3333    0.3333
  band No.  band energies     occupation 
      1      -2.8925      2.00000
      2      -1.3749      2.00000
      3       1.7865      2.00000
      4       2.9435      2.00000
      5       8.9363      0.00000
      6       9.3022      0.00000
      7      11.4333      0.00000
      8      12.1232      0.00000

 k-point   102 :      -0.1667    0.1667    0.5000
  band No.  band energies     occupation 
      1      -3.0080      2.00000
      2      -1.1739      2.00000
      3       1.8221      2.00000
      4       2.8162      2.00000
      5       8.7731      0.00000
      6       9.2820      0.00000
      7      11.5776      0.00000
      8      12.1772      0.00000

 k-point   103 :      -0.3333    0.3333   -0.1667
  band No.  band energies     occupation 
      1      -3.1344      2.00000
      2      -0.8823      2.00000
      3       1.6112      2.00000
      4       2.8659      2.00000
      5       8.8801      0.00000
      6       9.0456      0.00000
      7      11.9134      0.00000
      8      12.0077      0.00000

 k-point   104 :       0.3333    0.5000   -0.3333
  band No.  band energies     occupation 
      1      -2.8527      2.00000
      2      -1.4163      2.00000
      3       1.6323      2.00000
      4       3.1148      2.00000
      5       9.0983      0.00000
      6       9.2348      0.00000
      7      11.4959      0.00000
      8      11.9905      0.00000

 k-point   105 :       0.5000   -0.1667    0.1667
  band No.  band energies     occupation 
      1      -3.0236      2.00000
      2      -1.1420      2.00000
      3       1.8082      2.00000
      4       2.8133      2.00000
      5       8.7664      0.00000
      6       9.2705      0.00000
      7      11.6073      0.00000
      8      12.1638      0.00000

 k-point   106 :      -0.1667   -0.3333    0.3333
  band No.  band energies     occupation 
      1      -2.9886      2.00000
      2      -1.1936      2.00000
      3       1.7116      2.00000
      4       2.9331      2.00000
      5       8.8656      0.00000
      6       9.2650      0.00000
      7      11.5997      0.00000
      8      12.0496      0.00000

 k-point   107 :      -0.3333    0.5000    0.1667
  band No.  band energies     occupation 
      1      -2.2147      2.00000
      2      -1.8191      2.00000
      3       1.9391      2.00000
      4       2.1816      2.00000
      5       8.2137      0.00000
      6       8.5116      0.00000
      7      12.1936      0.00000
      8      12.4107      0.00000

 k-point   108 :       0.1667   -0.3333    0.5000
  band No.  band energies     occupation 
      1      -2.1778      2.00000
      2      -1.8626      2.00000
      3       1.9639      2.00000
      4       2.1652      2.00000
      5       8.2328      0.00000
      6       8.4865      0.00000
      7      12.2750      0.00000
      8      12.3442      0.00000

 k-point   109 :       0.5000    0.1667   -0.3333
  band No.  band energies     occupation 
      1      -2.1261      2.00000
      2      -1.9211      2.00000
      3       2.0032      2.00000
      4       2.1342      2.00000
      5       8.3079      0.00000
      6       8.4086      0.00000
      7      12.1883      0.00000
      8      12.4298      0.00000

 k-point   110 :       0.5000    0.3333   -0.1667
  band No.  band energies     occupation 
      1      -2.1972      2.00000
      2      -1.8399      2.00000
      3       1.9499      2.00000
      4       2.1751      2.00000
      5       8.2168      0.00000
      6       8.5048      0.00000
      7      12.2707      0.00000
      8      12.3446      0.00000

 k-point   111 :      -0.3333    0.1667    0.5000
  band No.  band energies     occupation 
      1      -2.1156      2.00000
      2      -1.9325      2.00000
      3       2.0086      2.00000
      4       2.1301      2.00000
      5       8.3116      0.00000
      6       8.4039      0.00000
      7      12.2038      0.00000
      8      12.4176      0.00000

 k-point   112 :       0.1667    0.5000   -0.3333
  band No.  band energies     occupation 
      1      -2.2029      2.00000
      2      -1.8332      2.00000
      3       1.9489      2.00000
      4       2.1747      2.00000
      5       8.2281      0.00000
      6       8.4960      0.00000
      7      12.1810      0.00000
      8      12.4240      0.00000


--------------------------------------------------------------------------------------------------------


 soft charge-density along one line, spin component           1
         0         1         2         3         4         5         6         7         8         9
 total charge-density along one line
 
 pseudopotential strength for first ion, spin component:           1
 18.438  25.724  -0.002  -0.001  -0.001  -0.005  -0.002  -0.001
 25.724  35.894  -0.003  -0.001  -0.001  -0.006  -0.003  -0.002
 -0.002  -0.003   4.180   0.000   0.000   7.790   0.000   0.000
 -0.001  -0.001   0.000   4.181   0.000   0.000   7.792   0.000
 -0.001  -0.001   0.000   0.000   4.181   0.000   0.000   7.791
 -0.005  -0.006   7.790   0.000   0.000  14.528   0.000   0.000
 -0.002  -0.003   0.000   7.792   0.000   0.000  14.530   0.001
 -0.001  -0.002   0.000   0.000   7.791   0.000   0.001  14.529
 total augmentation occupancy for first ion, spin component:           1
  5.537  -2.067  -0.136  -0.065  -0.050   0.042   0.021   0.016
 -2.067   0.884   0.069   0.033   0.025  -0.020  -0.010  -0.008
 -0.136   0.069   2.730   0.032   0.024  -0.593  -0.010  -0.008
 -0.065   0.033   0.032   3.044   0.052  -0.010  -0.692  -0.016
 -0.050   0.025   0.024   0.052   2.963  -0.008  -0.016  -0.667
  0.042  -0.020  -0.593  -0.010  -0.008   0.137   0.003   0.002
  0.021  -0.010  -0.010  -0.692  -0.016   0.003   0.166   0.005
  0.016  -0.008  -0.008  -0.016  -0.667   0.002   0.005   0.158


------------------------ aborting loop because EDIFF is reached ----------------------------------------





 total charge

# of ion       s       p       d       tot
------------------------------------------
    1        0.749   0.932   0.000   1.681
    2        0.749   0.932   0.000   1.681
--------------------------------------------------
tot          1.497   1.864   0.000   3.361
 
    CHARGE:  cpu time    0.0614: real time    0.0619
    FORLOC:  cpu time    0.0014: real time    0.0014
    FORNL :  cpu time    0.4420: real time    0.4461
    STRESS:  cpu time    1.5977: real time    1.6163
    FORCOR:  cpu time    0.0443: real time    0.0445
    FORHAR:  cpu time    0.0090: real time    0.0090
    MIXING:  cpu time    0.0017: real time    0.0017
    OFIELD:  cpu time    0.0001: real time    0.0001

  FORCE on cell =-STRESS in cart. coord.  units (eV):
  Direction    XX          YY          ZZ          XY          YZ          ZX
  --------------------------------------------------------------------------------------
  Alpha Z     3.29318     3.29318     3.29318
  Ewald     -73.68472   -82.38649   -70.79369     0.90773     1.17350     1.83548
  Hartree     5.30615     4.30343     5.62947     0.10759     0.13813     0.20567
  E(xc)     -25.27390   -25.20133   -25.29979    -0.00750    -0.00983    -0.01645
  Local     -31.63287   -22.40812   -34.67146    -0.95456    -1.23257    -1.92712
  n-local    77.81130    76.06469    78.42710     0.18340     0.24016     0.39132
  augment   -11.64262   -11.56679   -11.67014    -0.00793    -0.01042    -0.01751
  Kinetic    56.07561    57.25326    55.71267    -0.11863    -0.15151    -0.22916
  Fock        0.00000     0.00000     0.00000     0.00000     0.00000     0.00000
  -------------------------------------------------------------------------------------
  Total       0.25211    -0.64818     0.62735     0.11011     0.14746     0.24222
  in kB       9.87884   -25.39864    24.58217     4.31441     5.77803     9.49132
  external pressure =        3.02 kB  Pullay stress =        0.00 kB


 VOLUME and BASIS-vectors are now :
 -----------------------------------------------------------------------------
  energy-cutoff  :      680.00
  volume of cell :       40.89
      direct lattice vectors                 reciprocal lattice vectors
     3.348898000  0.000000000  1.933487000     0.298605691 -0.105573000  0.000000000
     1.116299000  3.157372000  1.933487000     0.000000000  0.316719094  0.000000000
     0.000000000  0.000000000  3.866975000    -0.149302807 -0.105573020  0.258600069

  length of vectors
     3.866974243  3.866974707  3.866975000     0.316719145  0.316719094  0.316719096


 FORCES acting on ions
    electron-ion (+dipol)            ewald-force                    non-local-force                 convergence-correction
 -----------------------------------------------------------------------------------------------
   -.605E+00 -.153E+01 -.804E+00   0.593E+00 0.158E+01 0.782E+00   0.333E+00 0.858E+00 0.442E+00   -.870E-04 -.130E-03 -.139E-03
   0.605E+00 0.153E+01 0.804E+00   -.593E+00 -.158E+01 -.782E+00   -.333E+00 -.858E+00 -.442E+00   0.870E-04 0.130E-03 0.139E-03
 -----------------------------------------------------------------------------------------------
   -.352E-13 -.676E-13 0.553E-13   0.000E+00 0.000E+00 0.222E-15   0.000E+00 0.000E+00 0.555E-16   -.932E-15 -.464E-15 -.576E-15
 
 
 POSITION                                       TOTAL-FORCE (eV/Angst)
 -----------------------------------------------------------------------------------
      1.10552      0.75081      1.91978         0.320155      0.911196      0.419774
      3.35968      0.03853      5.81416        -0.320155     -0.911196     -0.419774
 -----------------------------------------------------------------------------------
    total drift:                               -0.000000     -0.000000      0.000000


--------------------------------------------------------------------------------------------------------



  FREE ENERGIE OF THE ION-ELECTRON SYSTEM (eV)
  ---------------------------------------------------
  free  energy   TOTEN  =       -10.78223270 eV

  energy  without entropy=      -10.78223270  energy(sigma->0) =      -10.78223270
 


--------------------------------------------------------------------------------------------------------


    POTLOK:  cpu time    0.0913: real time    0.0917


--------------------------------------------------------------------------------------------------------


     LOOP+:  cpu time   29.4330: real time   30.2302
    4ORBIT:  cpu time    0.0000: real time    0.0000



 total charge

# of ion       s       p       d       tot
------------------------------------------
    1        0.749   0.932   0.000   1.681
    2        0.749   0.932   0.000   1.681
--------------------------------------------------
tot          1.497   1.864   0.000   3.361
 
 BZINTS: Fermi energy:    6.216572;    8.000000 electrons
         Band energy: 0.496967E+01;  BLOECHL correction:    0.000000

 total amount of memory used by VASP MPI-rank0    45150. kBytes
=======================================================================

   base      :      30000. kBytes
   nonlr-proj:        482. kBytes
   fftplans  :       3554. kBytes
   grid      :       5033. kBytes
   one-center:          3. kBytes
   wavefun   :       6078. kBytes
 
  
  
 General timing and accounting informations for this job:
 ========================================================
  
                  Total CPU time used (sec):       34.402
                            User time (sec):       32.281
                          System time (sec):        2.121
                         Elapsed time (sec):       35.449
  
                   Maximum memory used (kb):    49065984.
                   Average memory used (kb):          N/A
  
                          Minor page faults:        29905
                          Major page faults:           42
                 Voluntary context switches:           11
