<?xml version="1.0" encoding="ISO-8859-1"?>
<modeling>
 <generator>
  <i name="program" type="string">vasp </i>
  <i name="version" type="string">6.3.0  </i>
  <i name="subversion" type="string">20Jan22 (build Feb 02 2022 18:12:33) complex                          parallel </i>
  <i name="platform" type="string">LinuxIFC </i>
  <i name="date" type="string">2022 04 15 </i>
  <i name="time" type="string">08:48:37 </i>
 </generator>
 <incar>
  <i type="string" name="PREC">Accurate</i>
  <i type="string" name="ALGO">Fast</i>
  <i type="int" name="ISPIN">     2</i>
  <i type="int" name="NELM">   200</i>
  <i type="int" name="NELMIN">     6</i>
  <i name="EDIFF">      0.00001000</i>
  <i type="int" name="NSW">     0</i>
  <i name="ENCUT">    500.00000000</i>
  <i name="ENAUG">   1360.00000000</i>
  <v name="MAGMOM">      0.00000000      0.00000000      0.00000000      0.00000000      0.00000000      0.00000000      0.00000000</v>
  <i name="NELECT">     27.00000000</i>
  <i type="logical" name="LREAL"> F  </i>
  <i type="int" name="ISMEAR">     0</i>
  <i name="SIGMA">      0.05000000</i>
  <i type="logical" name="LWAVE"> T  </i>
  <i type="logical" name="LCHARG"> T  </i>
  <i type="logical" name="LVTOT"> T  </i>
  <i type="int" name="LORBIT">    11</i>
  <i type="logical" name="LELF"> F  </i>
  <i type="logical" name="LASPH"> T  </i>
  <i type="logical" name="LAECHG"> F  </i>
  <i type="string" name="GGA">Ps</i>
  <i type="logical" name="LMIXTAU"> T  </i>
 </incar>
 <primitive_cell>
  <structure name="primitive_cell" >
   <crystal>
    <varray name="basis" >
     <v>       5.43784835       0.00000000       0.00000000 </v>
     <v>       0.00000000       5.43784835       0.00000000 </v>
     <v>       0.00000000       0.00000000       5.43784835 </v>
    </varray>
    <i name="volume">    160.79823434 </i>
    <varray name="rec_basis" >
     <v>       0.18389626       0.00000000       0.00000000 </v>
     <v>       0.00000000       0.18389626       0.00000000 </v>
     <v>       0.00000000       0.00000000       0.18389626 </v>
    </varray>
   </crystal>
   <varray name="positions" >
    <v>       0.24298019       0.75701981       0.24298019 </v>
    <v>       0.00000000       0.00000000       0.50000000 </v>
    <v>       0.24298019       0.24298019       0.75701981 </v>
    <v>       0.00000000       0.50000000       0.00000000 </v>
    <v>       0.75701981       0.75701981       0.75701981 </v>
    <v>       0.50000000       0.00000000       0.00000000 </v>
    <v>       0.75701981       0.24298019       0.24298019 </v>
   </varray>
  </structure>
  <varray name="primitive_index" >
   <v type="int" >        1 </v>
   <v type="int" >        2 </v>
   <v type="int" >        3 </v>
   <v type="int" >        4 </v>
   <v type="int" >        5 </v>
   <v type="int" >        6 </v>
   <v type="int" >        7 </v>
  </varray>
 </primitive_cell>
 <kpoints>
  <generation param="Gamma">
   <v type="int" name="divisions">       4        4        4 </v>
   <v name="usershift">      0.00000000       0.00000000       0.00000000 </v>
   <v name="genvec1">      0.25000000       0.00000000       0.00000000 </v>
   <v name="genvec2">      0.00000000       0.25000000       0.00000000 </v>
   <v name="genvec3">      0.00000000       0.00000000       0.25000000 </v>
   <v name="shift">      0.00000000       0.00000000       0.00000000 </v>
  </generation>
  <varray name="kpointlist" >
   <v>       0.00000000       0.00000000       0.00000000 </v>
   <v>       0.25000000       0.00000000       0.00000000 </v>
   <v>       0.50000000       0.00000000       0.00000000 </v>
   <v>       0.25000000       0.25000000       0.00000000 </v>
   <v>       0.50000000       0.25000000       0.00000000 </v>
   <v>       0.50000000       0.50000000       0.00000000 </v>
   <v>       0.25000000       0.25000000       0.25000000 </v>
   <v>       0.50000000       0.25000000       0.25000000 </v>
   <v>       0.50000000       0.50000000       0.25000000 </v>
   <v>       0.50000000       0.50000000       0.50000000 </v>
  </varray>
  <varray name="weights" >
   <v>       0.01562500 </v>
   <v>       0.09375000 </v>
   <v>       0.04687500 </v>
   <v>       0.18750000 </v>
   <v>       0.18750000 </v>
   <v>       0.04687500 </v>
   <v>       0.12500000 </v>
   <v>       0.18750000 </v>
   <v>       0.09375000 </v>
   <v>       0.01562500 </v>
  </varray>
 </kpoints>
 <parameters>
  <separator name="general" >
   <i type="string" name="SYSTEM">unknown system</i>
   <i type="logical" name="LCOMPAT"> F  </i>
  </separator>
  <separator name="electronic" >
   <i type="string" name="PREC">accura</i>
   <i name="ENMAX">    500.00000000</i>
   <i name="ENAUG">   1360.00000000</i>
   <i name="EDIFF">      0.00001000</i>
   <i type="int" name="IALGO">    68</i>
   <i type="int" name="IWAVPR">    10</i>
   <i type="int" name="NBANDS">   144</i>
   <i type="int" name="NBANDSLOW">    -1</i>
   <i type="int" name="NBANDSHIGH">    -1</i>
   <i name="NELECT">     27.00000000</i>
   <i type="int" name="TURBO">     0</i>
   <i type="int" name="IRESTART">     0</i>
   <i type="int" name="NREBOOT">     0</i>
   <i type="int" name="NMIN">     0</i>
   <i name="EREF">      0.00000000</i>
   <separator name="electronic smearing" >
    <i type="int" name="ISMEAR">     0</i>
    <i name="SIGMA">      0.05000000</i>
    <i name="KSPACING">      0.50000000</i>
    <i type="logical" name="KGAMMA"> T  </i>
    <i type="logical" name="KBLOWUP"> T  </i>
   </separator>
   <separator name="electronic projectors" >
    <i type="logical" name="LREAL"> F  </i>
    <v name="ROPT">      0.00000000</v>
    <i type="int" name="LMAXPAW">  -100</i>
    <i type="int" name="LMAXMIX">     2</i>
    <i type="logical" name="NLSPLINE"> F  </i>
   </separator>
   <separator name="electronic startup" >
    <i type="int" name="ISTART">     0</i>
    <i type="int" name="ICHARG">     2</i>
    <i type="int" name="INIWAV">     1</i>
   </separator>
   <separator name="electronic spin" >
    <i type="int" name="ISPIN">     2</i>
    <i type="logical" name="LNONCOLLINEAR"> F  </i>
    <v name="MAGMOM">      0.00000000      0.00000000      0.00000000      0.00000000      0.00000000      0.00000000      0.00000000</v>
    <i name="NUPDOWN">     -1.00000000</i>
    <i type="logical" name="LSORBIT"> F  </i>
    <v name="SAXIS">      0.00000000      0.00000000      1.00000000</v>
    <i type="logical" name="LSPIRAL"> F  </i>
    <v name="QSPIRAL">      0.00000000      0.00000000      0.00000000</v>
    <i type="logical" name="LZEROZ"> F  </i>
   </separator>
   <separator name="electronic exchange-correlation" >
    <i type="logical" name="LASPH"> T  </i>
    <i type="logical" name="LMETAGGA"> F  </i>
   </separator>
   <separator name="electronic convergence" >
    <i type="int" name="NELM">   200</i>
    <i type="int" name="NELMDL">    -5</i>
    <i type="int" name="NELMIN">     6</i>
    <i name="ENINI">    500.00000000</i>
    <separator name="electronic convergence detail" >
     <i type="logical" name="LDIAG"> T  </i>
     <i type="logical" name="LSUBROT"> F  </i>
     <i name="WEIMIN">      0.00000000</i>
     <i name="EBREAK">      0.00000002</i>
     <i name="DEPER">      0.30000000</i>
     <i type="int" name="NRMM">     4</i>
     <i name="TIME">      0.40000000</i>
    </separator>
   </separator>
   <separator name="electronic mixer" >
    <i name="AMIX">      0.40000000</i>
    <i name="BMIX">      1.00000000</i>
    <i name="AMIN">      0.10000000</i>
    <i name="AMIX_MAG">      1.60000000</i>
    <i name="BMIX_MAG">      1.00000000</i>
    <separator name="electronic mixer details" >
     <i type="int" name="IMIX">     4</i>
     <i type="logical" name="MIXFIRST"> F  </i>
     <i type="int" name="MAXMIX">   -45</i>
     <i name="WC">    100.00000000</i>
     <i type="int" name="INIMIX">     1</i>
     <i type="int" name="MIXPRE">     1</i>
     <i type="int" name="MREMOVE">     5</i>
    </separator>
   </separator>
   <separator name="electronic dipolcorrection" >
    <i type="logical" name="LDIPOL"> F  </i>
    <i type="logical" name="LMONO"> F  </i>
    <i type="int" name="IDIPOL">     0</i>
    <i name="EPSILON">      1.00000000</i>
    <v name="DIPOL">   -100.00000000   -100.00000000   -100.00000000</v>
    <i name="EFIELD">      0.00000000</i>
   </separator>
  </separator>
  <separator name="grids" >
   <i type="int" name="NGX">    40</i>
   <i type="int" name="NGY">    40</i>
   <i type="int" name="NGZ">    40</i>
   <i type="int" name="NGXF">    80</i>
   <i type="int" name="NGYF">    80</i>
   <i type="int" name="NGZF">    80</i>
   <i type="logical" name="ADDGRID"> F  </i>
  </separator>
  <separator name="ionic" >
   <i type="int" name="NSW">     0</i>
   <i type="int" name="IBRION">    -1</i>
   <i type="int" name="MDALGO">     0</i>
   <i type="int" name="ISIF">     2</i>
   <i name="PSTRESS">      0.00000000</i>
   <i name="EDIFFG">      0.00010000</i>
   <i type="int" name="NFREE">     0</i>
   <i name="POTIM">      0.50000000</i>
   <i name="SMASS">     -3.00000000</i>
   <i name="SCALEE">      1.00000000</i>
  </separator>
  <separator name="ionic md" >
   <i name="TEBEG">      0.00010000</i>
   <i name="TEEND">      0.00010000</i>
   <i type="int" name="NBLOCK">     1</i>
   <i type="int" name="KBLOCK">     1</i>
   <i type="int" name="NPACO">   256</i>
   <i name="APACO">     10.00000000</i>
  </separator>
  <separator name="symmetry" >
   <i type="int" name="ISYM">     2</i>
   <i name="SYMPREC">      0.00001000</i>
  </separator>
  <separator name="dos" >
   <i type="int" name="LORBIT">    11</i>
   <v name="RWIGS">     -1.00000000</v>
   <i type="int" name="NEDOS">   301</i>
   <i name="EMIN">     10.00000000</i>
   <i name="EMAX">    -10.00000000</i>
   <i name="EFERMI">      0.00000000</i>
  </separator>
  <separator name="writing" >
   <i type="int" name="NWRITE">     2</i>
   <i type="logical" name="LWAVE"> T  </i>
   <i type="logical" name="LDOWNSAMPLE"> F  </i>
   <i type="logical" name="LCHARG"> T  </i>
   <i type="logical" name="LPARD"> F  </i>
   <i type="logical" name="LVTOT"> T  </i>
   <i type="logical" name="LVHAR"> F  </i>
   <i type="logical" name="LELF"> F  </i>
   <i type="logical" name="LOPTICS"> F  </i>
   <v name="STM">      0.00000000      0.00000000      0.00000000      0.00000000      0.00000000      0.00000000      0.00000000</v>
  </separator>
  <separator name="performance" >
   <i type="int" name="NPAR">   144</i>
   <i type="int" name="NSIM">     4</i>
   <i type="int" name="NBLK">    -1</i>
   <i type="logical" name="LPLANE"> T  </i>
   <i type="logical" name="LSCALAPACK"> T  </i>
   <i type="logical" name="LSCAAWARE"> T  </i>
   <i type="logical" name="LSCALU"> F  </i>
   <i type="logical" name="LASYNC"> F  </i>
   <i type="logical" name="LORBITALREAL"> F  </i>
  </separator>
  <separator name="miscellaneous" >
   <i type="int" name="IDIOT">     3</i>
   <i type="int" name="PHON_NSTRUCT">    -1</i>
   <i type="logical" name="LMUSIC"> F  </i>
   <v name="POMASS">     28.08500000</v>
   <v name="DARWINR">      0.00000000</v>
   <v name="DARWINV">      1.00000000</v>
   <i type="logical" name="LCORR"> T  </i>
  </separator>
  <i type="logical" name="GGA_COMPAT"> T  </i>
  <i type="logical" name="LBERRY"> F  </i>
  <i type="int" name="ICORELEVEL">     0</i>
  <i type="logical" name="LDAU"> F  </i>
  <i type="int" name="I_CONSTRAINED_M">     0</i>
  <separator name="electronic exchange-correlation" >
   <i type="string" name="GGA">PS</i>
   <i type="int" name="VOSKOWN">     0</i>
   <i type="logical" name="LHFCALC"> F  </i>
   <i type="string" name="PRECFOCK"></i>
   <i type="logical" name="LSYMGRAD"> F  </i>
   <i type="logical" name="LHFONE"> F  </i>
   <i type="logical" name="LRHFCALC"> F  </i>
   <i type="logical" name="LTHOMAS"> F  </i>
   <i type="logical" name="LMODELHF"> F  </i>
   <i type="logical" name="LFOCKACE"> F  </i>
   <i name="ENCUT4O">     -1.00000000</i>
   <i type="int" name="EXXOEP">     0</i>
   <i type="int" name="FOURORBIT">     0</i>
   <i name="AEXX">      0.00000000</i>
   <i name="HFALPHA">      0.00000000</i>
   <i name="MCALPHA">      0.00000000</i>
   <i name="ALDAX">      1.00000000</i>
   <i name="AGGAX">      1.00000000</i>
   <i name="ALDAC">      1.00000000</i>
   <i name="AGGAC">      1.00000000</i>
   <i type="int" name="NKREDX">     1</i>
   <i type="int" name="NKREDY">     1</i>
   <i type="int" name="NKREDZ">     1</i>
   <i type="logical" name="SHIFTRED"> F  </i>
   <i type="logical" name="ODDONLY"> F  </i>
   <i type="logical" name="EVENONLY"> F  </i>
   <i type="int" name="LMAXFOCK">     0</i>
   <i type="int" name="NMAXFOCKAE">     0</i>
   <i type="logical" name="LFOCKAEDFT"> F  </i>
   <i name="HFSCREEN">      0.00000000</i>
   <i name="HFSCREENC">      0.00000000</i>
   <i type="int" name="NBANDSGWLOW">     0</i>
  </separator>
  <separator name="vdW DFT" >
   <i type="logical" name="LUSE_VDW"> F  </i>
   <i name="Zab_VDW">     -0.84910000</i>
   <i name="PARAM1">      0.12340000</i>
   <i name="PARAM2">      1.00000000</i>
   <i name="PARAM3">      0.00000000</i>
  </separator>
  <separator name="model GW" >
   <i type="int" name="MODEL_GW">     0</i>
   <i name="MODEL_EPS0">     13.78270580</i>
   <i name="MODEL_ALPHA">      1.00000000</i>
  </separator>
  <separator name="linear response parameters" >
   <i type="logical" name="LEPSILON"> F  </i>
   <i type="logical" name="LRPA"> F  </i>
   <i type="logical" name="LNABLA"> F  </i>
   <i type="logical" name="LVEL"> F  </i>
   <i name="CSHIFT">      0.10000000</i>
   <i name="OMEGAMAX">     -1.00000000</i>
   <i name="DEG_THRESHOLD">      0.00200000</i>
   <i name="RTIME">     -0.10000000</i>
   <i name="WPLASMAI">      0.00000000</i>
   <v name="DFIELD">      0.00000000      0.00000000      0.00000000</v>
   <v name="WPLASMA">      0.00000000      0.00000000      0.00000000      0.00000000      0.00000000      0.00000000      0.00000000      0.00000000      0.00000000</v>
  </separator>
  <separator name="orbital magnetization" >
   <i type="logical" name="NUCIND"> F  </i>
   <v name="MAGPOS">      0.00000000      0.00000000      0.00000000</v>
   <i type="logical" name="LNICSALL"> T  </i>
   <i type="logical" name="ORBITALMAG"> F  </i>
   <i type="logical" name="LMAGBLOCH"> F  </i>
   <i type="logical" name="LCHIMAG"> F  </i>
   <i type="logical" name="LGAUGE"> T  </i>
   <i type="int" name="MAGATOM">     0</i>
   <v name="MAGDIPOL">      0.00000000      0.00000000      0.00000000</v>
   <v name="AVECCONST">      0.00000000      0.00000000      0.00000000</v>
  </separator>
  <separator name="response functions" >
   <i type="logical" name="LFINITE_TEMPERATURE"> F  </i>
   <i type="logical" name="LADDER"> F  </i>
   <i type="logical" name="LRPAFORCE"> F  </i>
   <i type="logical" name="LFXC"> F  </i>
   <i type="logical" name="LHARTREE"> T  </i>
   <i type="int" name="IBSE">     0</i>
   <v type="int" name="KPOINT">    -1     0     0     0</v>
   <i type="logical" name="LTCTC"> F  </i>
   <i type="logical" name="LTCTE"> F  </i>
   <i type="logical" name="LTETE"> F  </i>
   <i type="logical" name="LTRIPLET"> F  </i>
   <i type="logical" name="LFXCEPS"> F  </i>
   <i type="logical" name="LFXHEG"> F  </i>
   <i type="int" name="NATURALO">     2</i>
   <i type="logical" name="LHOLEGF"> F  </i>
   <i type="logical" name="L2ORDER"> F  </i>
   <i type="logical" name="LDMP1"> F  </i>
   <i type="logical" name="LMP2LT"> F  </i>
   <i type="logical" name="LSMP2LT"> F  </i>
   <i type="logical" name="LGWLF"> F  </i>
   <i name="ENCUTGW">     -2.00000000</i>
   <i name="ENCUTGWSOFT">     -2.00000000</i>
   <i name="ENCUTLF">     -1.00000000</i>
   <i type="logical" name="LESF_SPLINES"> F  </i>
   <i type="int" name="LMAXMP2">    -1</i>
   <i name="SCISSOR">      0.00000000</i>
   <i type="int" name="NOMEGA">     0</i>
   <i type="int" name="NOMEGAR">     0</i>
   <i type="int" name="NBANDSGW">    -1</i>
   <i type="int" name="NBANDSO">    -1</i>
   <i type="int" name="NBANDSV">    -1</i>
   <i type="int" name="NELMGW">     1</i>
   <i type="int" name="NELMHF">     1</i>
   <i type="int" name="DIM">     3</i>
   <i type="int" name="IESPILON">     4</i>
   <i type="int" name="ANTIRES">     0</i>
   <i name="OMEGAMAX">    -30.00000000</i>
   <i name="OMEGAMIN">    -30.00000000</i>
   <i name="OMEGATL">   -200.00000000</i>
   <i type="int" name="OMEGAGRID">     0</i>
   <i name="CSHIFT">     -0.10000000</i>
   <i type="logical" name="LSELFENERGY"> F  </i>
   <i type="logical" name="LSPECTRAL"> F  </i>
   <i type="logical" name="LSPECTRALGW"> F  </i>
   <i type="logical" name="LSINGLES"> F  </i>
   <i type="logical" name="LFERMIGW"> F  </i>
   <i type="logical" name="ODDONLYGW"> F  </i>
   <i type="logical" name="EVENONLYGW"> F  </i>
   <i type="int" name="NKREDLFX">     1</i>
   <i type="int" name="NKREDLFY">     1</i>
   <i type="int" name="NKREDLFZ">     1</i>
   <i type="int" name="MAXMEM">  2800</i>
   <i type="int" name="TELESCOPE">     0</i>
   <i type="int" name="NTAUPAR">    -1</i>
   <i type="int" name="NOMEGAPAR">    -1</i>
   <i name="DAMP_NEWTON">      0.80000001</i>
   <i name="LAMBDA">      1.00000000</i>
  </separator>
  <separator name="External order field" >
   <i name="OFIELD_KAPPA">      0.00000000</i>
   <v name="OFIELD_K">      0.00000000      0.00000000      0.00000000</v>
   <i name="OFIELD_Q6_NEAR">      0.00000000</i>
   <i name="OFIELD_Q6_FAR">      0.00000000</i>
   <i name="OFIELD_A">      0.00000000</i>
  </separator>
  <separator name="optional k-points parameters" >
   <i type="int" name="KPOINTS_OPT_MODE">     1</i>
   <i type="logical" name="LKPOINTS_OPT"> F  </i>
  </separator>
 </parameters>
 <atominfo>
  <atoms>       7 </atoms>
  <types>       1 </types>
  <array name="atoms" >
   <dimension dim="1">ion</dimension>
   <field type="string">element</field>
   <field type="int">atomtype</field>
   <set>
    <rc><c>Si</c><c>   1</c></rc>
    <rc><c>Si</c><c>   1</c></rc>
    <rc><c>Si</c><c>   1</c></rc>
    <rc><c>Si</c><c>   1</c></rc>
    <rc><c>Si</c><c>   1</c></rc>
    <rc><c>Si</c><c>   1</c></rc>
    <rc><c>Si</c><c>   1</c></rc>
   </set>
  </array>
  <array name="atomtypes" >
   <dimension dim="1">type</dimension>
   <field type="int">atomspertype</field>
   <field type="string">element</field>
   <field>mass</field>
   <field>valence</field>
   <field type="string">pseudopotential</field>
   <set>
    <rc><c>   7</c><c>Si</c><c>     28.08500000</c><c>      4.00000000</c><c>  PAW_PBE Si 05Jan2001                  </c></rc>
   </set>
  </array>
 </atominfo>
 <structure name="initialpos" >
  <crystal>
   <varray name="basis" >
    <v>       5.43784835       0.00000000       0.00000000 </v>
    <v>       0.00000000       5.43784835       0.00000000 </v>
    <v>       0.00000000       0.00000000       5.43784835 </v>
   </varray>
   <i name="volume">    160.79823434 </i>
   <varray name="rec_basis" >
    <v>       0.18389626       0.00000000       0.00000000 </v>
    <v>       0.00000000       0.18389626       0.00000000 </v>
    <v>       0.00000000       0.00000000       0.18389626 </v>
   </varray>
  </crystal>
  <varray name="positions" >
   <v>       0.24298019       0.75701981       0.24298019 </v>
   <v>       0.00000000       0.00000000       0.50000000 </v>
   <v>       0.24298019       0.24298019       0.75701981 </v>
   <v>       0.00000000       0.50000000       0.00000000 </v>
   <v>       0.75701981       0.75701981       0.75701981 </v>
   <v>       0.50000000       0.00000000       0.00000000 </v>
   <v>       0.75701981       0.24298019       0.24298019 </v>
  </varray>
 </structure>
 <calculation>
  <scstep>
   <time name="dav">    5.19    5.20</time>
   <time name="total">    5.40    5.41</time>
   <energy>
    <i name="alphaZ">     10.25815623 </i>
    <i name="ewald">   -736.07946766 </i>
    <i name="hartreedc">    -65.14476703 </i>
    <i name="XCdc">    -62.33306886 </i>
    <i name="pawpsdc">    612.34974655 </i>
    <i name="pawaedc">   -491.33201702 </i>
    <i name="eentropy">     -0.00495935 </i>
    <i name="bandstr">     -9.82877923 </i>
    <i name="atom">    718.02812073 </i>
    <i name="e_fr_energy">    -24.08703565 </i>
    <i name="e_wo_entrp">    -24.08207630 </i>
    <i name="e_0_energy">    -24.08455597 </i>
   </energy>
  </scstep>
  <scstep>
   <time name="dav">   12.40   12.40</time>
   <time name="total">   12.40   12.41</time>
   <energy>
    <i name="e_fr_energy">    -42.28511346 </i>
    <i name="e_wo_entrp">    -42.27982420 </i>
    <i name="e_0_energy">    -42.28246883 </i>
   </energy>
  </scstep>
  <scstep>
   <time name="dav">    5.35    5.37</time>
   <time name="total">    5.36    5.38</time>
   <energy>
    <i name="e_fr_energy">    -42.29978772 </i>
    <i name="e_wo_entrp">    -42.29449844 </i>
    <i name="e_0_energy">    -42.29714308 </i>
   </energy>
  </scstep>
  <scstep>
   <time name="dav">   25.47   25.49</time>
   <time name="total">   25.47   25.49</time>
   <energy>
    <i name="e_fr_energy">    -42.29979569 </i>
    <i name="e_wo_entrp">    -42.29450641 </i>
    <i name="e_0_energy">    -42.29715105 </i>
   </energy>
  </scstep>
  <scstep>
   <time name="dav">    5.66    5.68</time>
   <time name="total">    5.71    5.73</time>
   <energy>
    <i name="e_fr_energy">    -42.29979569 </i>
    <i name="e_wo_entrp">    -42.29450641 </i>
    <i name="e_0_energy">    -42.29715105 </i>
   </energy>
  </scstep>
  <scstep>
   <time name="diag">    0.81    0.81</time>
   <time name="diis">    0.19    0.19</time>
   <time name="orth">    0.11    0.11</time>
   <time name="total">    1.38    1.40</time>
   <energy>
    <i name="e_fr_energy">    -41.78852992 </i>
    <i name="e_wo_entrp">    -41.78324064 </i>
    <i name="e_0_energy">    -41.78588528 </i>
   </energy>
  </scstep>
  <scstep>
   <time name="diag">    0.80    0.80</time>
   <time name="diis">    0.30    0.30</time>
   <time name="orth">    0.11    0.11</time>
   <time name="total">    1.48    1.49</time>
   <energy>
    <i name="e_fr_energy">    -41.58242074 </i>
    <i name="e_wo_entrp">    -41.57713147 </i>
    <i name="e_0_energy">    -41.57977611 </i>
   </energy>
  </scstep>
  <scstep>
   <time name="diag">    0.77    0.77</time>
   <time name="diis">    0.27    0.27</time>
   <time name="orth">    0.11    0.11</time>
   <time name="total">    1.41    1.43</time>
   <energy>
    <i name="e_fr_energy">    -41.57429092 </i>
    <i name="e_wo_entrp">    -41.56900164 </i>
    <i name="e_0_energy">    -41.57164628 </i>
   </energy>
  </scstep>
  <scstep>
   <time name="diag">    0.77    0.77</time>
   <time name="diis">    0.31    0.31</time>
   <time name="orth">    0.11    0.11</time>
   <time name="total">    1.45    1.46</time>
   <energy>
    <i name="e_fr_energy">    -41.57421017 </i>
    <i name="e_wo_entrp">    -41.56892089 </i>
    <i name="e_0_energy">    -41.57156553 </i>
   </energy>
  </scstep>
  <scstep>
   <time name="diag">    0.76    0.76</time>
   <time name="diis">    0.30    0.30</time>
   <time name="orth">    0.11    0.11</time>
   <time name="total">    1.44    1.45</time>
   <energy>
    <i name="e_fr_energy">    -41.57427441 </i>
    <i name="e_wo_entrp">    -41.56898513 </i>
    <i name="e_0_energy">    -41.57162977 </i>
   </energy>
  </scstep>
  <scstep>
   <time name="diag">    0.76    0.76</time>
   <time name="diis">    0.32    0.32</time>
   <time name="orth">    0.11    0.11</time>
   <time name="total">    1.45    1.46</time>
   <energy>
    <i name="e_fr_energy">    -41.57423606 </i>
    <i name="e_wo_entrp">    -41.56894678 </i>
    <i name="e_0_energy">    -41.57159142 </i>
   </energy>
  </scstep>
  <scstep>
   <time name="diag">    0.75    0.75</time>
   <time name="diis">    0.32    0.32</time>
   <time name="orth">    0.11    0.11</time>
   <time name="total">    1.40    1.42</time>
   <energy>
    <i name="alphaZ">     10.25815623 </i>
    <i name="ewald">   -736.07946766 </i>
    <i name="hartreedc">    -76.12026444 </i>
    <i name="XCdc">    -63.41884326 </i>
    <i name="pawpsdc">   2468.73455924 </i>
    <i name="pawaedc">  -2348.16688286 </i>
    <i name="eentropy">     -0.00528928 </i>
    <i name="bandstr">    -14.80432534 </i>
    <i name="atom">    718.02812073 </i>
    <i name="e_fr_energy">    -41.57423664 </i>
    <i name="e_wo_entrp">    -41.56894736 </i>
    <i name="e_0_energy">    -41.57159200 </i>
   </energy>
  </scstep>
  <structure>
   <crystal>
    <varray name="basis" >
     <v>       5.43784835       0.00000000       0.00000000 </v>
     <v>       0.00000000       5.43784835       0.00000000 </v>
     <v>       0.00000000       0.00000000       5.43784835 </v>
    </varray>
    <i name="volume">    160.79823434 </i>
    <varray name="rec_basis" >
     <v>       0.18389626       0.00000000       0.00000000 </v>
     <v>       0.00000000       0.18389626       0.00000000 </v>
     <v>       0.00000000       0.00000000       0.18389626 </v>
    </varray>
   </crystal>
   <varray name="positions" >
    <v>       0.24298019       0.75701981       0.24298019 </v>
    <v>       0.00000000       0.00000000       0.50000000 </v>
    <v>       0.24298019       0.24298019       0.75701981 </v>
    <v>       0.00000000       0.50000000       0.00000000 </v>
    <v>       0.75701981       0.75701981       0.75701981 </v>
    <v>       0.50000000       0.00000000       0.00000000 </v>
    <v>       0.75701981       0.24298019       0.24298019 </v>
   </varray>
  </structure>
  <varray name="forces" >
   <v>       0.03630011      -0.03630011       0.03630011 </v>
   <v>       0.00000000       0.00000000       0.00000000 </v>
   <v>       0.03630011       0.03630011      -0.03630011 </v>
   <v>       0.00000000       0.00000000       0.00000000 </v>
   <v>      -0.03630011      -0.03630011      -0.03630011 </v>
   <v>       0.00000000       0.00000000       0.00000000 </v>
   <v>      -0.03630011       0.03630011       0.03630011 </v>
  </varray>
  <varray name="stress" >
   <v>    -104.00410182       0.00000000       0.00000000 </v>
   <v>      -0.00000000    -104.00410182       0.00000000 </v>
   <v>       0.00000000      -0.00000000    -104.00410182 </v>
  </varray>
  <energy>
   <i name="e_fr_energy">    -41.57423664 </i>
   <i name="e_wo_entrp">    -41.56894736 </i>
   <i name="e_0_energy">    -41.57159200 </i>
  </energy>
  <time name="totalsc">   67.21   67.48</time>
  <eigenvalues>
   <array>
    <dimension dim="1">band</dimension>
    <dimension dim="2">kpoint</dimension>
    <dimension dim="3">spin</dimension>
    <field>eigene</field>
    <field>occ</field>
    <set>
     <set comment="spin 1">
      <set comment="kpoint 1">
       <r>   -7.0442    1.0000 </r>
       <r>   -3.3552    1.0000 </r>
       <r>   -3.3552    1.0000 </r>
       <r>   -2.9909    1.0000 </r>
       <r>   -2.9909    1.0000 </r>
       <r>   -2.9909    1.0000 </r>
       <r>    1.5466    1.0000 </r>
       <r>    1.6861    1.0000 </r>
       <r>    1.6861    1.0000 </r>
       <r>    1.6861    1.0000 </r>
       <r>    2.7039    1.0000 </r>
       <r>    2.7039    1.0000 </r>
       <r>    2.7039    1.0000 </r>
       <r>    5.6929    0.0000 </r>
       <r>    5.6929    0.0000 </r>
       <r>    5.6929    0.0000 </r>
       <r>    5.9333    0.0000 </r>
       <r>    5.9333    0.0000 </r>
       <r>    5.9816    0.0000 </r>
       <r>    6.1359    0.0000 </r>
       <r>    6.1359    0.0000 </r>
       <r>    6.1359    0.0000 </r>
       <r>    9.0265    0.0000 </r>
       <r>    9.0265    0.0000 </r>
       <r>    9.0265    0.0000 </r>
       <r>   10.6382    0.0000 </r>
       <r>   12.8753    0.0000 </r>
       <r>   12.8753    0.0000 </r>
       <r>   13.4867    0.0000 </r>
       <r>   14.6962    0.0000 </r>
       <r>   14.6962    0.0000 </r>
       <r>   14.6962    0.0000 </r>
       <r>   15.3845    0.0000 </r>
       <r>   15.3845    0.0000 </r>
       <r>   15.3845    0.0000 </r>
       <r>   15.4023    0.0000 </r>
       <r>   15.4023    0.0000 </r>
       <r>   15.4023    0.0000 </r>
       <r>   16.5692    0.0000 </r>
       <r>   16.5692    0.0000 </r>
       <r>   16.5692    0.0000 </r>
       <r>   17.0769    0.0000 </r>
       <r>   17.4604    0.0000 </r>
       <r>   17.4604    0.0000 </r>
       <r>   17.5393    0.0000 </r>
       <r>   17.5393    0.0000 </r>
       <r>   17.5393    0.0000 </r>
       <r>   18.5746    0.0000 </r>
       <r>   18.5746    0.0000 </r>
       <r>   18.5746    0.0000 </r>
       <r>   19.2340    0.0000 </r>
       <r>   19.4335    0.0000 </r>
       <r>   19.4335    0.0000 </r>
       <r>   20.3446    0.0000 </r>
       <r>   21.1344    0.0000 </r>
       <r>   21.1344    0.0000 </r>
       <r>   21.1344    0.0000 </r>
       <r>   23.4912    0.0000 </r>
       <r>   23.8101    0.0000 </r>
       <r>   23.8101    0.0000 </r>
       <r>   23.8101    0.0000 </r>
       <r>   24.6532    0.0000 </r>
       <r>   24.6532    0.0000 </r>
       <r>   24.6532    0.0000 </r>
       <r>   25.1264    0.0000 </r>
       <r>   25.1264    0.0000 </r>
       <r>   25.1264    0.0000 </r>
       <r>   25.2606    0.0000 </r>
       <r>   25.2606    0.0000 </r>
       <r>   25.2606    0.0000 </r>
       <r>   26.0067    0.0000 </r>
       <r>   26.0067    0.0000 </r>
       <r>   26.2005    0.0000 </r>
       <r>   26.2005    0.0000 </r>
       <r>   26.6300    0.0000 </r>
       <r>   26.6300    0.0000 </r>
       <r>   26.6300    0.0000 </r>
       <r>   27.4925    0.0000 </r>
       <r>   27.4925    0.0000 </r>
       <r>   27.4925    0.0000 </r>
       <r>   27.7120    0.0000 </r>
       <r>   28.1523    0.0000 </r>
       <r>   28.1523    0.0000 </r>
       <r>   28.1523    0.0000 </r>
       <r>   29.3123    0.0000 </r>
       <r>   29.3123    0.0000 </r>
       <r>   31.0538    0.0000 </r>
       <r>   31.5172    0.0000 </r>
       <r>   31.5172    0.0000 </r>
       <r>   31.5172    0.0000 </r>
       <r>   32.8762    0.0000 </r>
       <r>   32.8762    0.0000 </r>
       <r>   33.5779    0.0000 </r>
       <r>   33.5779    0.0000 </r>
       <r>   33.5779    0.0000 </r>
       <r>   33.6502    0.0000 </r>
       <r>   33.6502    0.0000 </r>
       <r>   33.6502    0.0000 </r>
       <r>   36.0941    0.0000 </r>
       <r>   36.0941    0.0000 </r>
       <r>   36.0941    0.0000 </r>
       <r>   37.1199    0.0000 </r>
       <r>   37.1199    0.0000 </r>
       <r>   37.1199    0.0000 </r>
       <r>   39.0883    0.0000 </r>
       <r>   39.0883    0.0000 </r>
       <r>   39.1615    0.0000 </r>
       <r>   39.1615    0.0000 </r>
       <r>   39.1615    0.0000 </r>
       <r>   39.2003    0.0000 </r>
       <r>   39.2003    0.0000 </r>
       <r>   39.2003    0.0000 </r>
       <r>   39.5045    0.0000 </r>
       <r>   40.5170    0.0000 </r>
       <r>   40.5170    0.0000 </r>
       <r>   40.5170    0.0000 </r>
       <r>   40.5675    0.0000 </r>
       <r>   40.9208    0.0000 </r>
       <r>   40.9208    0.0000 </r>
       <r>   40.9208    0.0000 </r>
       <r>   42.1668    0.0000 </r>
       <r>   42.1668    0.0000 </r>
       <r>   42.5054    0.0000 </r>
       <r>   42.5054    0.0000 </r>
       <r>   42.5054    0.0000 </r>
       <r>   42.6972    0.0000 </r>
       <r>   42.9278    0.0000 </r>
       <r>   43.1628    0.0000 </r>
       <r>   43.1628    0.0000 </r>
       <r>   43.1628    0.0000 </r>
       <r>   43.3489    0.0000 </r>
       <r>   43.3489    0.0000 </r>
       <r>   44.3353    0.0000 </r>
       <r>   44.3353    0.0000 </r>
       <r>   44.3353    0.0000 </r>
       <r>   45.0798    0.0000 </r>
       <r>   45.0808    0.0000 </r>
       <r>   45.3177    0.0000 </r>
       <r>   45.3177    0.0000 </r>
       <r>   45.3177    0.0000 </r>
       <r>   45.4824    0.0000 </r>
       <r>   45.4824    0.0000 </r>
       <r>   45.4824    0.0000 </r>
       <r>   46.2076    0.0000 </r>
      </set>
      <set comment="kpoint 2">
       <r>   -6.8077    1.0000 </r>
       <r>   -4.6811    1.0000 </r>
       <r>   -3.2939    1.0000 </r>
       <r>   -2.9260    1.0000 </r>
       <r>   -2.9260    1.0000 </r>
       <r>   -1.5700    1.0000 </r>
       <r>    1.2498    1.0000 </r>
       <r>    1.4122    1.0000 </r>
       <r>    1.4122    1.0000 </r>
       <r>    1.6683    1.0000 </r>
       <r>    2.1161    1.0000 </r>
       <r>    2.5589    1.0000 </r>
       <r>    2.5589    1.0000 </r>
       <r>    5.0456    0.0000 </r>
       <r>    5.5169    0.0000 </r>
       <r>    5.5169    0.0000 </r>
       <r>    5.7988    0.0000 </r>
       <r>    6.4087    0.0000 </r>
       <r>    6.9579    0.0000 </r>
       <r>    6.9579    0.0000 </r>
       <r>    7.0669    0.0000 </r>
       <r>    7.3076    0.0000 </r>
       <r>    8.6541    0.0000 </r>
       <r>    9.9599    0.0000 </r>
       <r>    9.9599    0.0000 </r>
       <r>   10.9038    0.0000 </r>
       <r>   12.1559    0.0000 </r>
       <r>   12.3506    0.0000 </r>
       <r>   12.3506    0.0000 </r>
       <r>   12.6119    0.0000 </r>
       <r>   13.1591    0.0000 </r>
       <r>   13.5856    0.0000 </r>
       <r>   14.5849    0.0000 </r>
       <r>   14.6248    0.0000 </r>
       <r>   14.6248    0.0000 </r>
       <r>   14.8757    0.0000 </r>
       <r>   15.8021    0.0000 </r>
       <r>   15.8021    0.0000 </r>
       <r>   16.1103    0.0000 </r>
       <r>   16.7968    0.0000 </r>
       <r>   16.9299    0.0000 </r>
       <r>   16.9299    0.0000 </r>
       <r>   17.1972    0.0000 </r>
       <r>   17.4930    0.0000 </r>
       <r>   17.9966    0.0000 </r>
       <r>   18.4274    0.0000 </r>
       <r>   18.4274    0.0000 </r>
       <r>   19.1937    0.0000 </r>
       <r>   19.1937    0.0000 </r>
       <r>   19.4994    0.0000 </r>
       <r>   19.8263    0.0000 </r>
       <r>   20.1061    0.0000 </r>
       <r>   20.9330    0.0000 </r>
       <r>   21.2238    0.0000 </r>
       <r>   21.5078    0.0000 </r>
       <r>   21.5078    0.0000 </r>
       <r>   21.6633    0.0000 </r>
       <r>   22.3260    0.0000 </r>
       <r>   22.5127    0.0000 </r>
       <r>   22.5127    0.0000 </r>
       <r>   23.0798    0.0000 </r>
       <r>   23.4985    0.0000 </r>
       <r>   23.4985    0.0000 </r>
       <r>   23.8966    0.0000 </r>
       <r>   24.3249    0.0000 </r>
       <r>   24.4692    0.0000 </r>
       <r>   24.6480    0.0000 </r>
       <r>   24.6480    0.0000 </r>
       <r>   25.2443    0.0000 </r>
       <r>   25.6394    0.0000 </r>
       <r>   25.6394    0.0000 </r>
       <r>   26.3377    0.0000 </r>
       <r>   26.9706    0.0000 </r>
       <r>   27.3157    0.0000 </r>
       <r>   27.3157    0.0000 </r>
       <r>   27.8620    0.0000 </r>
       <r>   27.9607    0.0000 </r>
       <r>   28.1765    0.0000 </r>
       <r>   28.5951    0.0000 </r>
       <r>   28.7704    0.0000 </r>
       <r>   28.7704    0.0000 </r>
       <r>   28.7727    0.0000 </r>
       <r>   29.4238    0.0000 </r>
       <r>   29.7373    0.0000 </r>
       <r>   29.7373    0.0000 </r>
       <r>   30.1086    0.0000 </r>
       <r>   30.5668    0.0000 </r>
       <r>   30.8884    0.0000 </r>
       <r>   31.3603    0.0000 </r>
       <r>   31.5190    0.0000 </r>
       <r>   31.5190    0.0000 </r>
       <r>   32.7292    0.0000 </r>
       <r>   32.7292    0.0000 </r>
       <r>   32.8315    0.0000 </r>
       <r>   34.1604    0.0000 </r>
       <r>   34.8506    0.0000 </r>
       <r>   34.8506    0.0000 </r>
       <r>   34.9060    0.0000 </r>
       <r>   35.2305    0.0000 </r>
       <r>   35.9714    0.0000 </r>
       <r>   35.9714    0.0000 </r>
       <r>   36.7387    0.0000 </r>
       <r>   36.7387    0.0000 </r>
       <r>   36.9183    0.0000 </r>
       <r>   36.9762    0.0000 </r>
       <r>   37.3322    0.0000 </r>
       <r>   37.4101    0.0000 </r>
       <r>   37.5280    0.0000 </r>
       <r>   37.5280    0.0000 </r>
       <r>   38.4277    0.0000 </r>
       <r>   38.4277    0.0000 </r>
       <r>   38.5775    0.0000 </r>
       <r>   38.6757    0.0000 </r>
       <r>   39.9790    0.0000 </r>
       <r>   40.0560    0.0000 </r>
       <r>   40.0560    0.0000 </r>
       <r>   40.6259    0.0000 </r>
       <r>   40.7143    0.0000 </r>
       <r>   40.7316    0.0000 </r>
       <r>   40.7316    0.0000 </r>
       <r>   41.0466    0.0000 </r>
       <r>   41.8674    0.0000 </r>
       <r>   42.0383    0.0000 </r>
       <r>   42.2956    0.0000 </r>
       <r>   42.4499    0.0000 </r>
       <r>   42.4499    0.0000 </r>
       <r>   42.8005    0.0000 </r>
       <r>   43.4265    0.0000 </r>
       <r>   43.4265    0.0000 </r>
       <r>   43.6993    0.0000 </r>
       <r>   44.4192    0.0000 </r>
       <r>   44.4863    0.0000 </r>
       <r>   44.6802    0.0000 </r>
       <r>   44.6924    0.0000 </r>
       <r>   44.6924    0.0000 </r>
       <r>   44.9080    0.0000 </r>
       <r>   45.0404    0.0000 </r>
       <r>   45.0404    0.0000 </r>
       <r>   45.1826    0.0000 </r>
       <r>   45.3889    0.0000 </r>
       <r>   45.7423    0.0000 </r>
       <r>   45.7424    0.0000 </r>
       <r>   46.2795    0.0000 </r>
       <r>   46.3055    0.0000 </r>
      </set>
      <set comment="kpoint 3">
       <r>   -6.3558    1.0000 </r>
       <r>   -5.5747    1.0000 </r>
       <r>   -3.2281    1.0000 </r>
       <r>   -2.8560    1.0000 </r>
       <r>   -2.8560    1.0000 </r>
       <r>   -0.4610    1.0000 </r>
       <r>    0.6427    1.0000 </r>
       <r>    0.8922    1.0000 </r>
       <r>    1.1050    1.0000 </r>
       <r>    1.1050    1.0000 </r>
       <r>    2.5849    1.0000 </r>
       <r>    2.5849    1.0000 </r>
       <r>    3.0319    1.0000 </r>
       <r>    3.7736    1.0000 </r>
       <r>    5.0934    0.0000 </r>
       <r>    5.0934    0.0000 </r>
       <r>    6.1528    0.0000 </r>
       <r>    6.5811    0.0000 </r>
       <r>    8.0965    0.0000 </r>
       <r>    9.0897    0.0000 </r>
       <r>    9.0897    0.0000 </r>
       <r>    9.2659    0.0000 </r>
       <r>    9.4276    0.0000 </r>
       <r>    9.7103    0.0000 </r>
       <r>    9.7103    0.0000 </r>
       <r>    9.7248    0.0000 </r>
       <r>   10.4761    0.0000 </r>
       <r>   10.6170    0.0000 </r>
       <r>   11.2894    0.0000 </r>
       <r>   11.2894    0.0000 </r>
       <r>   13.2645    0.0000 </r>
       <r>   13.2645    0.0000 </r>
       <r>   13.4448    0.0000 </r>
       <r>   14.3486    0.0000 </r>
       <r>   14.7321    0.0000 </r>
       <r>   14.7923    0.0000 </r>
       <r>   15.3587    0.0000 </r>
       <r>   15.7750    0.0000 </r>
       <r>   15.7750    0.0000 </r>
       <r>   16.4784    0.0000 </r>
       <r>   16.9898    0.0000 </r>
       <r>   17.4992    0.0000 </r>
       <r>   17.6326    0.0000 </r>
       <r>   17.6326    0.0000 </r>
       <r>   18.2874    0.0000 </r>
       <r>   18.4035    0.0000 </r>
       <r>   18.7899    0.0000 </r>
       <r>   18.7899    0.0000 </r>
       <r>   19.6718    0.0000 </r>
       <r>   19.8125    0.0000 </r>
       <r>   19.8125    0.0000 </r>
       <r>   20.7145    0.0000 </r>
       <r>   21.5976    0.0000 </r>
       <r>   21.5976    0.0000 </r>
       <r>   21.6342    0.0000 </r>
       <r>   21.7871    0.0000 </r>
       <r>   22.3131    0.0000 </r>
       <r>   22.3131    0.0000 </r>
       <r>   22.5400    0.0000 </r>
       <r>   22.5400    0.0000 </r>
       <r>   22.9628    0.0000 </r>
       <r>   23.0467    0.0000 </r>
       <r>   23.6280    0.0000 </r>
       <r>   23.6280    0.0000 </r>
       <r>   23.9944    0.0000 </r>
       <r>   24.0252    0.0000 </r>
       <r>   24.1408    0.0000 </r>
       <r>   24.8130    0.0000 </r>
       <r>   24.8889    0.0000 </r>
       <r>   25.6377    0.0000 </r>
       <r>   26.4605    0.0000 </r>
       <r>   26.4605    0.0000 </r>
       <r>   26.5836    0.0000 </r>
       <r>   26.7358    0.0000 </r>
       <r>   27.2063    0.0000 </r>
       <r>   27.2063    0.0000 </r>
       <r>   27.3236    0.0000 </r>
       <r>   27.4414    0.0000 </r>
       <r>   29.5406    0.0000 </r>
       <r>   29.7410    0.0000 </r>
       <r>   30.0083    0.0000 </r>
       <r>   30.0083    0.0000 </r>
       <r>   30.2940    0.0000 </r>
       <r>   31.4117    0.0000 </r>
       <r>   31.6746    0.0000 </r>
       <r>   31.7474    0.0000 </r>
       <r>   31.7474    0.0000 </r>
       <r>   32.0269    0.0000 </r>
       <r>   32.2748    0.0000 </r>
       <r>   32.5525    0.0000 </r>
       <r>   32.5525    0.0000 </r>
       <r>   32.6701    0.0000 </r>
       <r>   32.6701    0.0000 </r>
       <r>   32.6761    0.0000 </r>
       <r>   33.9228    0.0000 </r>
       <r>   34.0003    0.0000 </r>
       <r>   34.2415    0.0000 </r>
       <r>   34.2415    0.0000 </r>
       <r>   34.4630    0.0000 </r>
       <r>   34.6506    0.0000 </r>
       <r>   34.7304    0.0000 </r>
       <r>   34.7304    0.0000 </r>
       <r>   35.0395    0.0000 </r>
       <r>   35.5417    0.0000 </r>
       <r>   35.5417    0.0000 </r>
       <r>   35.8565    0.0000 </r>
       <r>   36.4341    0.0000 </r>
       <r>   36.4341    0.0000 </r>
       <r>   36.7370    0.0000 </r>
       <r>   38.0958    0.0000 </r>
       <r>   38.2586    0.0000 </r>
       <r>   38.2586    0.0000 </r>
       <r>   39.0003    0.0000 </r>
       <r>   39.7969    0.0000 </r>
       <r>   39.9587    0.0000 </r>
       <r>   40.4249    0.0000 </r>
       <r>   40.5671    0.0000 </r>
       <r>   40.5820    0.0000 </r>
       <r>   40.5820    0.0000 </r>
       <r>   41.4330    0.0000 </r>
       <r>   41.4330    0.0000 </r>
       <r>   41.5739    0.0000 </r>
       <r>   41.7525    0.0000 </r>
       <r>   42.0652    0.0000 </r>
       <r>   42.0652    0.0000 </r>
       <r>   42.2100    0.0000 </r>
       <r>   42.7705    0.0000 </r>
       <r>   42.7705    0.0000 </r>
       <r>   42.9213    0.0000 </r>
       <r>   42.9679    0.0000 </r>
       <r>   43.4284    0.0000 </r>
       <r>   43.4284    0.0000 </r>
       <r>   44.2560    0.0000 </r>
       <r>   44.6477    0.0000 </r>
       <r>   44.8596    0.0000 </r>
       <r>   44.8596    0.0000 </r>
       <r>   45.1324    0.0000 </r>
       <r>   45.2003    0.0000 </r>
       <r>   45.2003    0.0000 </r>
       <r>   45.5809    0.0000 </r>
       <r>   45.8730    0.0000 </r>
       <r>   45.9371    0.0000 </r>
       <r>   46.7255    0.0000 </r>
       <r>   46.7563    0.0000 </r>
      </set>
      <set comment="kpoint 4">
       <r>   -6.5735    1.0000 </r>
       <r>   -4.7539    1.0000 </r>
       <r>   -4.2818    1.0000 </r>
       <r>   -2.9804    1.0000 </r>
       <r>   -2.0796    1.0000 </r>
       <r>   -1.2020    1.0000 </r>
       <r>    0.4630    1.0000 </r>
       <r>    1.2771    1.0000 </r>
       <r>    1.4820    1.0000 </r>
       <r>    1.8088    1.0000 </r>
       <r>    1.8305    1.0000 </r>
       <r>    2.7625    1.0000 </r>
       <r>    2.7998    1.0000 </r>
       <r>    4.2727    0.5000 </r>
       <r>    5.0063    0.0000 </r>
       <r>    5.8618    0.0000 </r>
       <r>    6.2283    0.0000 </r>
       <r>    6.8214    0.0000 </r>
       <r>    7.1727    0.0000 </r>
       <r>    7.5018    0.0000 </r>
       <r>    7.5569    0.0000 </r>
       <r>    8.9969    0.0000 </r>
       <r>    9.5800    0.0000 </r>
       <r>    9.6234    0.0000 </r>
       <r>    9.8266    0.0000 </r>
       <r>   10.2233    0.0000 </r>
       <r>   11.5892    0.0000 </r>
       <r>   11.6085    0.0000 </r>
       <r>   12.2281    0.0000 </r>
       <r>   12.3110    0.0000 </r>
       <r>   12.6712    0.0000 </r>
       <r>   13.2257    0.0000 </r>
       <r>   13.2339    0.0000 </r>
       <r>   14.1743    0.0000 </r>
       <r>   14.4543    0.0000 </r>
       <r>   15.0399    0.0000 </r>
       <r>   15.1121    0.0000 </r>
       <r>   15.4124    0.0000 </r>
       <r>   16.0028    0.0000 </r>
       <r>   16.3753    0.0000 </r>
       <r>   16.5401    0.0000 </r>
       <r>   16.7563    0.0000 </r>
       <r>   17.7592    0.0000 </r>
       <r>   18.1631    0.0000 </r>
       <r>   18.5941    0.0000 </r>
       <r>   18.8385    0.0000 </r>
       <r>   18.8848    0.0000 </r>
       <r>   19.2630    0.0000 </r>
       <r>   19.5110    0.0000 </r>
       <r>   19.6235    0.0000 </r>
       <r>   19.9356    0.0000 </r>
       <r>   20.1280    0.0000 </r>
       <r>   20.3393    0.0000 </r>
       <r>   21.1244    0.0000 </r>
       <r>   21.2978    0.0000 </r>
       <r>   21.6209    0.0000 </r>
       <r>   21.7365    0.0000 </r>
       <r>   22.4488    0.0000 </r>
       <r>   22.6077    0.0000 </r>
       <r>   22.7810    0.0000 </r>
       <r>   22.9352    0.0000 </r>
       <r>   23.1946    0.0000 </r>
       <r>   23.4468    0.0000 </r>
       <r>   23.9381    0.0000 </r>
       <r>   24.4712    0.0000 </r>
       <r>   24.9339    0.0000 </r>
       <r>   25.1850    0.0000 </r>
       <r>   25.2127    0.0000 </r>
       <r>   25.8979    0.0000 </r>
       <r>   25.9273    0.0000 </r>
       <r>   26.4420    0.0000 </r>
       <r>   26.4958    0.0000 </r>
       <r>   26.7133    0.0000 </r>
       <r>   27.0543    0.0000 </r>
       <r>   27.3046    0.0000 </r>
       <r>   27.6335    0.0000 </r>
       <r>   27.6373    0.0000 </r>
       <r>   27.9369    0.0000 </r>
       <r>   28.4642    0.0000 </r>
       <r>   28.6838    0.0000 </r>
       <r>   28.9086    0.0000 </r>
       <r>   29.2688    0.0000 </r>
       <r>   29.4428    0.0000 </r>
       <r>   30.0526    0.0000 </r>
       <r>   30.4474    0.0000 </r>
       <r>   30.8499    0.0000 </r>
       <r>   31.0789    0.0000 </r>
       <r>   31.2361    0.0000 </r>
       <r>   32.2639    0.0000 </r>
       <r>   32.3030    0.0000 </r>
       <r>   32.6530    0.0000 </r>
       <r>   32.9769    0.0000 </r>
       <r>   33.1339    0.0000 </r>
       <r>   33.2507    0.0000 </r>
       <r>   33.6193    0.0000 </r>
       <r>   33.7340    0.0000 </r>
       <r>   34.5414    0.0000 </r>
       <r>   34.5992    0.0000 </r>
       <r>   34.7828    0.0000 </r>
       <r>   35.3762    0.0000 </r>
       <r>   35.5437    0.0000 </r>
       <r>   35.5658    0.0000 </r>
       <r>   36.1064    0.0000 </r>
       <r>   36.7378    0.0000 </r>
       <r>   36.8250    0.0000 </r>
       <r>   37.1798    0.0000 </r>
       <r>   37.4483    0.0000 </r>
       <r>   37.5477    0.0000 </r>
       <r>   37.8152    0.0000 </r>
       <r>   38.0463    0.0000 </r>
       <r>   38.2291    0.0000 </r>
       <r>   38.2764    0.0000 </r>
       <r>   38.7315    0.0000 </r>
       <r>   38.7826    0.0000 </r>
       <r>   39.2494    0.0000 </r>
       <r>   39.3176    0.0000 </r>
       <r>   39.6396    0.0000 </r>
       <r>   39.7115    0.0000 </r>
       <r>   40.1159    0.0000 </r>
       <r>   40.1972    0.0000 </r>
       <r>   40.7991    0.0000 </r>
       <r>   41.1215    0.0000 </r>
       <r>   41.3092    0.0000 </r>
       <r>   42.2468    0.0000 </r>
       <r>   42.3930    0.0000 </r>
       <r>   42.4469    0.0000 </r>
       <r>   42.6731    0.0000 </r>
       <r>   43.0799    0.0000 </r>
       <r>   43.1492    0.0000 </r>
       <r>   43.4688    0.0000 </r>
       <r>   43.5357    0.0000 </r>
       <r>   43.6340    0.0000 </r>
       <r>   44.2102    0.0000 </r>
       <r>   44.2570    0.0000 </r>
       <r>   44.6224    0.0000 </r>
       <r>   44.9908    0.0000 </r>
       <r>   45.0088    0.0000 </r>
       <r>   45.1184    0.0000 </r>
       <r>   45.2040    0.0000 </r>
       <r>   46.1142    0.0000 </r>
       <r>   46.1474    0.0000 </r>
       <r>   46.2482    0.0000 </r>
       <r>   46.4939    0.0000 </r>
       <r>   46.7571    0.0000 </r>
      </set>
      <set comment="kpoint 5">
       <r>   -6.1128    1.0000 </r>
       <r>   -5.4527    1.0000 </r>
       <r>   -4.3154    1.0000 </r>
       <r>   -3.0772    1.0000 </r>
       <r>   -1.8240    1.0000 </r>
       <r>   -0.6412    1.0000 </r>
       <r>    0.1640    1.0000 </r>
       <r>    0.5764    1.0000 </r>
       <r>    1.4836    1.0000 </r>
       <r>    1.6819    1.0000 </r>
       <r>    2.3497    1.0000 </r>
       <r>    2.4751    1.0000 </r>
       <r>    3.0144    1.0000 </r>
       <r>    3.8493    1.0000 </r>
       <r>    5.0612    0.0000 </r>
       <r>    5.1623    0.0000 </r>
       <r>    7.2818    0.0000 </r>
       <r>    7.6967    0.0000 </r>
       <r>    7.7530    0.0000 </r>
       <r>    7.8017    0.0000 </r>
       <r>    9.0229    0.0000 </r>
       <r>    9.3397    0.0000 </r>
       <r>    9.4092    0.0000 </r>
       <r>    9.9044    0.0000 </r>
       <r>    9.9747    0.0000 </r>
       <r>   10.2131    0.0000 </r>
       <r>   10.4058    0.0000 </r>
       <r>   10.8188    0.0000 </r>
       <r>   11.7522    0.0000 </r>
       <r>   11.8897    0.0000 </r>
       <r>   12.4639    0.0000 </r>
       <r>   12.4845    0.0000 </r>
       <r>   13.1648    0.0000 </r>
       <r>   13.1968    0.0000 </r>
       <r>   13.5215    0.0000 </r>
       <r>   14.2526    0.0000 </r>
       <r>   15.5912    0.0000 </r>
       <r>   15.6478    0.0000 </r>
       <r>   15.8326    0.0000 </r>
       <r>   16.4129    0.0000 </r>
       <r>   16.7480    0.0000 </r>
       <r>   17.0318    0.0000 </r>
       <r>   17.4483    0.0000 </r>
       <r>   17.8915    0.0000 </r>
       <r>   18.7752    0.0000 </r>
       <r>   18.9232    0.0000 </r>
       <r>   19.0529    0.0000 </r>
       <r>   19.3580    0.0000 </r>
       <r>   19.5598    0.0000 </r>
       <r>   19.8645    0.0000 </r>
       <r>   20.0827    0.0000 </r>
       <r>   20.4129    0.0000 </r>
       <r>   20.4209    0.0000 </r>
       <r>   20.6140    0.0000 </r>
       <r>   21.0937    0.0000 </r>
       <r>   21.4303    0.0000 </r>
       <r>   22.2003    0.0000 </r>
       <r>   22.4177    0.0000 </r>
       <r>   22.5751    0.0000 </r>
       <r>   22.9209    0.0000 </r>
       <r>   22.9807    0.0000 </r>
       <r>   23.6990    0.0000 </r>
       <r>   23.8477    0.0000 </r>
       <r>   23.8652    0.0000 </r>
       <r>   24.8508    0.0000 </r>
       <r>   24.9973    0.0000 </r>
       <r>   25.0906    0.0000 </r>
       <r>   25.6723    0.0000 </r>
       <r>   25.7936    0.0000 </r>
       <r>   26.0467    0.0000 </r>
       <r>   26.1427    0.0000 </r>
       <r>   26.7408    0.0000 </r>
       <r>   27.2522    0.0000 </r>
       <r>   27.2633    0.0000 </r>
       <r>   27.4295    0.0000 </r>
       <r>   27.6667    0.0000 </r>
       <r>   28.0045    0.0000 </r>
       <r>   28.3741    0.0000 </r>
       <r>   28.8898    0.0000 </r>
       <r>   29.1385    0.0000 </r>
       <r>   29.1898    0.0000 </r>
       <r>   29.7227    0.0000 </r>
       <r>   29.7751    0.0000 </r>
       <r>   30.4944    0.0000 </r>
       <r>   30.8745    0.0000 </r>
       <r>   31.3161    0.0000 </r>
       <r>   31.6666    0.0000 </r>
       <r>   31.6996    0.0000 </r>
       <r>   32.3479    0.0000 </r>
       <r>   32.4449    0.0000 </r>
       <r>   32.4762    0.0000 </r>
       <r>   33.0017    0.0000 </r>
       <r>   33.0302    0.0000 </r>
       <r>   33.0901    0.0000 </r>
       <r>   33.5808    0.0000 </r>
       <r>   33.9694    0.0000 </r>
       <r>   34.0277    0.0000 </r>
       <r>   34.4123    0.0000 </r>
       <r>   34.7018    0.0000 </r>
       <r>   34.9437    0.0000 </r>
       <r>   35.0365    0.0000 </r>
       <r>   35.1491    0.0000 </r>
       <r>   35.6602    0.0000 </r>
       <r>   36.1748    0.0000 </r>
       <r>   36.3074    0.0000 </r>
       <r>   36.3757    0.0000 </r>
       <r>   36.5327    0.0000 </r>
       <r>   36.8986    0.0000 </r>
       <r>   37.3097    0.0000 </r>
       <r>   37.4496    0.0000 </r>
       <r>   37.8172    0.0000 </r>
       <r>   38.2684    0.0000 </r>
       <r>   38.4044    0.0000 </r>
       <r>   38.6832    0.0000 </r>
       <r>   39.0518    0.0000 </r>
       <r>   39.2653    0.0000 </r>
       <r>   39.3879    0.0000 </r>
       <r>   39.5206    0.0000 </r>
       <r>   40.3462    0.0000 </r>
       <r>   40.3770    0.0000 </r>
       <r>   40.4836    0.0000 </r>
       <r>   40.8076    0.0000 </r>
       <r>   40.9457    0.0000 </r>
       <r>   41.7269    0.0000 </r>
       <r>   41.7787    0.0000 </r>
       <r>   42.0717    0.0000 </r>
       <r>   42.0992    0.0000 </r>
       <r>   42.8712    0.0000 </r>
       <r>   42.9359    0.0000 </r>
       <r>   43.2190    0.0000 </r>
       <r>   43.3669    0.0000 </r>
       <r>   43.4821    0.0000 </r>
       <r>   44.0297    0.0000 </r>
       <r>   44.0305    0.0000 </r>
       <r>   44.4426    0.0000 </r>
       <r>   44.9025    0.0000 </r>
       <r>   45.1853    0.0000 </r>
       <r>   45.2389    0.0000 </r>
       <r>   45.5528    0.0000 </r>
       <r>   45.7058    0.0000 </r>
       <r>   45.7932    0.0000 </r>
       <r>   46.1877    0.0000 </r>
       <r>   46.3780    0.0000 </r>
       <r>   46.5085    0.0000 </r>
      </set>
      <set comment="kpoint 6">
       <r>   -5.4938    1.0000 </r>
       <r>   -5.3036    1.0000 </r>
       <r>   -5.3036    1.0000 </r>
       <r>   -3.3473    1.0000 </r>
       <r>   -0.7990    1.0000 </r>
       <r>   -0.6448    1.0000 </r>
       <r>   -0.6448    1.0000 </r>
       <r>    0.4880    1.0000 </r>
       <r>    1.3236    1.0000 </r>
       <r>    1.3236    1.0000 </r>
       <r>    2.7156    1.0000 </r>
       <r>    2.9196    1.0000 </r>
       <r>    3.3049    1.0000 </r>
       <r>    3.5147    1.0000 </r>
       <r>    5.5043    0.0000 </r>
       <r>    5.5043    0.0000 </r>
       <r>    6.9668    0.0000 </r>
       <r>    6.9668    0.0000 </r>
       <r>    8.6226    0.0000 </r>
       <r>    8.8020    0.0000 </r>
       <r>    9.3539    0.0000 </r>
       <r>    9.5501    0.0000 </r>
       <r>    9.6857    0.0000 </r>
       <r>    9.6857    0.0000 </r>
       <r>    9.9938    0.0000 </r>
       <r>   10.2977    0.0000 </r>
       <r>   10.2977    0.0000 </r>
       <r>   10.3046    0.0000 </r>
       <r>   11.2112    0.0000 </r>
       <r>   11.9215    0.0000 </r>
       <r>   11.9215    0.0000 </r>
       <r>   12.9914    0.0000 </r>
       <r>   12.9914    0.0000 </r>
       <r>   13.1084    0.0000 </r>
       <r>   13.2510    0.0000 </r>
       <r>   13.3052    0.0000 </r>
       <r>   14.4835    0.0000 </r>
       <r>   15.6107    0.0000 </r>
       <r>   15.6107    0.0000 </r>
       <r>   15.7045    0.0000 </r>
       <r>   17.0011    0.0000 </r>
       <r>   17.7474    0.0000 </r>
       <r>   17.7474    0.0000 </r>
       <r>   17.7820    0.0000 </r>
       <r>   18.3985    0.0000 </r>
       <r>   18.3985    0.0000 </r>
       <r>   18.5752    0.0000 </r>
       <r>   19.2140    0.0000 </r>
       <r>   19.3406    0.0000 </r>
       <r>   19.3406    0.0000 </r>
       <r>   19.7043    0.0000 </r>
       <r>   20.9089    0.0000 </r>
       <r>   21.6449    0.0000 </r>
       <r>   21.6449    0.0000 </r>
       <r>   21.7101    0.0000 </r>
       <r>   21.8622    0.0000 </r>
       <r>   22.0897    0.0000 </r>
       <r>   22.2033    0.0000 </r>
       <r>   22.2033    0.0000 </r>
       <r>   22.2907    0.0000 </r>
       <r>   23.2129    0.0000 </r>
       <r>   23.5493    0.0000 </r>
       <r>   23.5493    0.0000 </r>
       <r>   23.5779    0.0000 </r>
       <r>   24.8435    0.0000 </r>
       <r>   25.4398    0.0000 </r>
       <r>   26.0230    0.0000 </r>
       <r>   26.0230    0.0000 </r>
       <r>   26.4126    0.0000 </r>
       <r>   26.4126    0.0000 </r>
       <r>   26.5996    0.0000 </r>
       <r>   27.1467    0.0000 </r>
       <r>   27.3425    0.0000 </r>
       <r>   27.3425    0.0000 </r>
       <r>   27.7765    0.0000 </r>
       <r>   28.0505    0.0000 </r>
       <r>   29.0773    0.0000 </r>
       <r>   29.4964    0.0000 </r>
       <r>   29.4964    0.0000 </r>
       <r>   29.7879    0.0000 </r>
       <r>   29.9126    0.0000 </r>
       <r>   29.9126    0.0000 </r>
       <r>   30.2385    0.0000 </r>
       <r>   30.6548    0.0000 </r>
       <r>   31.1843    0.0000 </r>
       <r>   31.2191    0.0000 </r>
       <r>   31.6027    0.0000 </r>
       <r>   31.6027    0.0000 </r>
       <r>   32.0168    0.0000 </r>
       <r>   32.0731    0.0000 </r>
       <r>   32.0920    0.0000 </r>
       <r>   32.0920    0.0000 </r>
       <r>   32.7117    0.0000 </r>
       <r>   32.7311    0.0000 </r>
       <r>   32.7311    0.0000 </r>
       <r>   32.9590    0.0000 </r>
       <r>   32.9590    0.0000 </r>
       <r>   33.7084    0.0000 </r>
       <r>   33.7533    0.0000 </r>
       <r>   33.7790    0.0000 </r>
       <r>   34.6332    0.0000 </r>
       <r>   34.7465    0.0000 </r>
       <r>   35.7204    0.0000 </r>
       <r>   35.9497    0.0000 </r>
       <r>   35.9497    0.0000 </r>
       <r>   36.0290    0.0000 </r>
       <r>   36.5806    0.0000 </r>
       <r>   36.5806    0.0000 </r>
       <r>   37.6910    0.0000 </r>
       <r>   37.6910    0.0000 </r>
       <r>   37.7330    0.0000 </r>
       <r>   38.9172    0.0000 </r>
       <r>   38.9172    0.0000 </r>
       <r>   39.0924    0.0000 </r>
       <r>   39.4494    0.0000 </r>
       <r>   40.3169    0.0000 </r>
       <r>   40.5052    0.0000 </r>
       <r>   40.7883    0.0000 </r>
       <r>   40.7883    0.0000 </r>
       <r>   40.7941    0.0000 </r>
       <r>   40.9779    0.0000 </r>
       <r>   41.3625    0.0000 </r>
       <r>   41.3719    0.0000 </r>
       <r>   41.8698    0.0000 </r>
       <r>   41.8698    0.0000 </r>
       <r>   41.9447    0.0000 </r>
       <r>   42.1925    0.0000 </r>
       <r>   42.5496    0.0000 </r>
       <r>   42.7915    0.0000 </r>
       <r>   42.7915    0.0000 </r>
       <r>   43.0741    0.0000 </r>
       <r>   43.0741    0.0000 </r>
       <r>   43.0824    0.0000 </r>
       <r>   43.3224    0.0000 </r>
       <r>   43.3224    0.0000 </r>
       <r>   43.5623    0.0000 </r>
       <r>   43.7835    0.0000 </r>
       <r>   44.1342    0.0000 </r>
       <r>   44.1342    0.0000 </r>
       <r>   44.3171    0.0000 </r>
       <r>   44.5822    0.0000 </r>
       <r>   44.5822    0.0000 </r>
       <r>   44.9337    0.0000 </r>
       <r>   45.6216    0.0000 </r>
      </set>
      <set comment="kpoint 7">
       <r>   -6.3455    1.0000 </r>
       <r>   -4.6627    1.0000 </r>
       <r>   -4.6627    1.0000 </r>
       <r>   -3.3251    1.0000 </r>
       <r>   -1.4934    1.0000 </r>
       <r>   -1.4934    1.0000 </r>
       <r>    0.0281    1.0000 </r>
       <r>    1.1324    1.0000 </r>
       <r>    1.1324    1.0000 </r>
       <r>    2.3235    1.0000 </r>
       <r>    2.4068    1.0000 </r>
       <r>    2.9129    1.0000 </r>
       <r>    2.9129    1.0000 </r>
       <r>    3.8744    1.0000 </r>
       <r>    5.6674    0.0000 </r>
       <r>    5.6674    0.0000 </r>
       <r>    6.2375    0.0000 </r>
       <r>    6.5906    0.0000 </r>
       <r>    6.5906    0.0000 </r>
       <r>    8.8026    0.0000 </r>
       <r>    8.8026    0.0000 </r>
       <r>    8.9109    0.0000 </r>
       <r>    9.8352    0.0000 </r>
       <r>    9.9442    0.0000 </r>
       <r>    9.9442    0.0000 </r>
       <r>   10.3310    0.0000 </r>
       <r>   10.3310    0.0000 </r>
       <r>   10.3743    0.0000 </r>
       <r>   11.8550    0.0000 </r>
       <r>   11.8550    0.0000 </r>
       <r>   12.7575    0.0000 </r>
       <r>   13.3041    0.0000 </r>
       <r>   13.3041    0.0000 </r>
       <r>   14.0469    0.0000 </r>
       <r>   14.2427    0.0000 </r>
       <r>   15.2286    0.0000 </r>
       <r>   15.4723    0.0000 </r>
       <r>   15.4723    0.0000 </r>
       <r>   15.8174    0.0000 </r>
       <r>   15.8174    0.0000 </r>
       <r>   16.0126    0.0000 </r>
       <r>   17.2873    0.0000 </r>
       <r>   17.3435    0.0000 </r>
       <r>   17.5507    0.0000 </r>
       <r>   17.5507    0.0000 </r>
       <r>   17.9599    0.0000 </r>
       <r>   19.0209    0.0000 </r>
       <r>   19.0209    0.0000 </r>
       <r>   19.4792    0.0000 </r>
       <r>   19.4792    0.0000 </r>
       <r>   19.6688    0.0000 </r>
       <r>   20.3936    0.0000 </r>
       <r>   20.3936    0.0000 </r>
       <r>   22.1782    0.0000 </r>
       <r>   22.1782    0.0000 </r>
       <r>   22.4571    0.0000 </r>
       <r>   22.5087    0.0000 </r>
       <r>   22.7115    0.0000 </r>
       <r>   22.7115    0.0000 </r>
       <r>   23.2110    0.0000 </r>
       <r>   23.4759    0.0000 </r>
       <r>   23.4759    0.0000 </r>
       <r>   23.8900    0.0000 </r>
       <r>   24.0263    0.0000 </r>
       <r>   24.0263    0.0000 </r>
       <r>   24.4432    0.0000 </r>
       <r>   24.7608    0.0000 </r>
       <r>   25.0437    0.0000 </r>
       <r>   25.0437    0.0000 </r>
       <r>   26.3245    0.0000 </r>
       <r>   26.3245    0.0000 </r>
       <r>   26.3761    0.0000 </r>
       <r>   26.7603    0.0000 </r>
       <r>   26.9932    0.0000 </r>
       <r>   26.9932    0.0000 </r>
       <r>   27.6781    0.0000 </r>
       <r>   27.6781    0.0000 </r>
       <r>   29.2371    0.0000 </r>
       <r>   29.2409    0.0000 </r>
       <r>   29.2409    0.0000 </r>
       <r>   29.9476    0.0000 </r>
       <r>   29.9476    0.0000 </r>
       <r>   30.0039    0.0000 </r>
       <r>   30.1248    0.0000 </r>
       <r>   30.5778    0.0000 </r>
       <r>   30.5778    0.0000 </r>
       <r>   31.6555    0.0000 </r>
       <r>   32.2883    0.0000 </r>
       <r>   32.2883    0.0000 </r>
       <r>   32.6062    0.0000 </r>
       <r>   32.8295    0.0000 </r>
       <r>   32.8295    0.0000 </r>
       <r>   33.5966    0.0000 </r>
       <r>   33.5966    0.0000 </r>
       <r>   33.7459    0.0000 </r>
       <r>   33.8131    0.0000 </r>
       <r>   34.2006    0.0000 </r>
       <r>   34.5280    0.0000 </r>
       <r>   34.6208    0.0000 </r>
       <r>   34.6208    0.0000 </r>
       <r>   34.9263    0.0000 </r>
       <r>   34.9263    0.0000 </r>
       <r>   36.0621    0.0000 </r>
       <r>   36.0621    0.0000 </r>
       <r>   36.3511    0.0000 </r>
       <r>   36.4037    0.0000 </r>
       <r>   36.4151    0.0000 </r>
       <r>   36.4151    0.0000 </r>
       <r>   37.3234    0.0000 </r>
       <r>   37.3820    0.0000 </r>
       <r>   37.3820    0.0000 </r>
       <r>   38.1640    0.0000 </r>
       <r>   38.1640    0.0000 </r>
       <r>   38.9446    0.0000 </r>
       <r>   39.2310    0.0000 </r>
       <r>   39.2310    0.0000 </r>
       <r>   39.3484    0.0000 </r>
       <r>   40.2367    0.0000 </r>
       <r>   40.2367    0.0000 </r>
       <r>   40.8058    0.0000 </r>
       <r>   40.8058    0.0000 </r>
       <r>   41.2160    0.0000 </r>
       <r>   41.4295    0.0000 </r>
       <r>   41.4295    0.0000 </r>
       <r>   41.5424    0.0000 </r>
       <r>   41.7281    0.0000 </r>
       <r>   41.8222    0.0000 </r>
       <r>   41.8222    0.0000 </r>
       <r>   42.9319    0.0000 </r>
       <r>   42.9502    0.0000 </r>
       <r>   42.9502    0.0000 </r>
       <r>   43.4606    0.0000 </r>
       <r>   43.6220    0.0000 </r>
       <r>   43.6220    0.0000 </r>
       <r>   44.1562    0.0000 </r>
       <r>   44.7398    0.0000 </r>
       <r>   44.7398    0.0000 </r>
       <r>   44.9568    0.0000 </r>
       <r>   45.3056    0.0000 </r>
       <r>   45.7746    0.0000 </r>
       <r>   45.7746    0.0000 </r>
       <r>   46.9403    0.0000 </r>
       <r>   46.9418    0.0000 </r>
       <r>   47.0254    0.0000 </r>
      </set>
      <set comment="kpoint 8">
       <r>   -5.8882    1.0000 </r>
       <r>   -5.3416    1.0000 </r>
       <r>   -4.5589    1.0000 </r>
       <r>   -3.3262    1.0000 </r>
       <r>   -1.7869    1.0000 </r>
       <r>   -1.1530    1.0000 </r>
       <r>   -0.5376    1.0000 </r>
       <r>    1.1048    1.0000 </r>
       <r>    2.0492    1.0000 </r>
       <r>    2.1666    1.0000 </r>
       <r>    2.3758    1.0000 </r>
       <r>    2.5049    1.0000 </r>
       <r>    2.8699    1.0000 </r>
       <r>    4.5735    0.0000 </r>
       <r>    5.1021    0.0000 </r>
       <r>    5.5242    0.0000 </r>
       <r>    6.8789    0.0000 </r>
       <r>    7.6349    0.0000 </r>
       <r>    7.8183    0.0000 </r>
       <r>    7.9401    0.0000 </r>
       <r>    8.0206    0.0000 </r>
       <r>    8.7280    0.0000 </r>
       <r>    9.7257    0.0000 </r>
       <r>    9.7912    0.0000 </r>
       <r>   10.1275    0.0000 </r>
       <r>   10.2319    0.0000 </r>
       <r>   10.4887    0.0000 </r>
       <r>   10.8734    0.0000 </r>
       <r>   11.9823    0.0000 </r>
       <r>   12.0621    0.0000 </r>
       <r>   12.4245    0.0000 </r>
       <r>   12.7863    0.0000 </r>
       <r>   12.8002    0.0000 </r>
       <r>   13.4041    0.0000 </r>
       <r>   14.1813    0.0000 </r>
       <r>   14.9395    0.0000 </r>
       <r>   15.2187    0.0000 </r>
       <r>   15.2792    0.0000 </r>
       <r>   15.4293    0.0000 </r>
       <r>   15.9154    0.0000 </r>
       <r>   16.0308    0.0000 </r>
       <r>   16.7088    0.0000 </r>
       <r>   16.9526    0.0000 </r>
       <r>   17.2155    0.0000 </r>
       <r>   18.3655    0.0000 </r>
       <r>   18.7107    0.0000 </r>
       <r>   18.7977    0.0000 </r>
       <r>   18.9581    0.0000 </r>
       <r>   19.0001    0.0000 </r>
       <r>   19.0854    0.0000 </r>
       <r>   20.4512    0.0000 </r>
       <r>   20.6475    0.0000 </r>
       <r>   20.7830    0.0000 </r>
       <r>   20.9786    0.0000 </r>
       <r>   21.4775    0.0000 </r>
       <r>   22.2742    0.0000 </r>
       <r>   22.3266    0.0000 </r>
       <r>   22.7151    0.0000 </r>
       <r>   22.8977    0.0000 </r>
       <r>   23.2045    0.0000 </r>
       <r>   23.4608    0.0000 </r>
       <r>   23.6143    0.0000 </r>
       <r>   23.9773    0.0000 </r>
       <r>   24.2888    0.0000 </r>
       <r>   24.4033    0.0000 </r>
       <r>   24.9163    0.0000 </r>
       <r>   25.1930    0.0000 </r>
       <r>   25.9752    0.0000 </r>
       <r>   26.1550    0.0000 </r>
       <r>   26.3108    0.0000 </r>
       <r>   26.6390    0.0000 </r>
       <r>   26.7373    0.0000 </r>
       <r>   27.0257    0.0000 </r>
       <r>   27.5380    0.0000 </r>
       <r>   28.0725    0.0000 </r>
       <r>   28.1329    0.0000 </r>
       <r>   28.3661    0.0000 </r>
       <r>   28.8138    0.0000 </r>
       <r>   29.5704    0.0000 </r>
       <r>   29.6382    0.0000 </r>
       <r>   29.7345    0.0000 </r>
       <r>   30.0742    0.0000 </r>
       <r>   30.4520    0.0000 </r>
       <r>   30.4556    0.0000 </r>
       <r>   30.6444    0.0000 </r>
       <r>   31.0933    0.0000 </r>
       <r>   31.2194    0.0000 </r>
       <r>   31.2961    0.0000 </r>
       <r>   31.9477    0.0000 </r>
       <r>   32.0085    0.0000 </r>
       <r>   32.3147    0.0000 </r>
       <r>   32.5732    0.0000 </r>
       <r>   32.8912    0.0000 </r>
       <r>   33.3836    0.0000 </r>
       <r>   34.0951    0.0000 </r>
       <r>   34.3436    0.0000 </r>
       <r>   34.4437    0.0000 </r>
       <r>   34.7743    0.0000 </r>
       <r>   34.8657    0.0000 </r>
       <r>   35.1023    0.0000 </r>
       <r>   35.1527    0.0000 </r>
       <r>   35.3535    0.0000 </r>
       <r>   35.5675    0.0000 </r>
       <r>   35.8023    0.0000 </r>
       <r>   36.1457    0.0000 </r>
       <r>   36.2973    0.0000 </r>
       <r>   36.4485    0.0000 </r>
       <r>   36.8633    0.0000 </r>
       <r>   36.9434    0.0000 </r>
       <r>   37.0321    0.0000 </r>
       <r>   37.2688    0.0000 </r>
       <r>   37.4613    0.0000 </r>
       <r>   37.5761    0.0000 </r>
       <r>   37.6603    0.0000 </r>
       <r>   38.0691    0.0000 </r>
       <r>   38.5079    0.0000 </r>
       <r>   39.1366    0.0000 </r>
       <r>   39.6241    0.0000 </r>
       <r>   39.7740    0.0000 </r>
       <r>   40.0622    0.0000 </r>
       <r>   40.1550    0.0000 </r>
       <r>   40.5747    0.0000 </r>
       <r>   41.0835    0.0000 </r>
       <r>   41.4626    0.0000 </r>
       <r>   41.4910    0.0000 </r>
       <r>   41.6181    0.0000 </r>
       <r>   41.7055    0.0000 </r>
       <r>   42.2441    0.0000 </r>
       <r>   42.3075    0.0000 </r>
       <r>   42.7928    0.0000 </r>
       <r>   43.2468    0.0000 </r>
       <r>   43.3013    0.0000 </r>
       <r>   43.6539    0.0000 </r>
       <r>   43.7663    0.0000 </r>
       <r>   44.0911    0.0000 </r>
       <r>   44.4020    0.0000 </r>
       <r>   44.8847    0.0000 </r>
       <r>   45.0553    0.0000 </r>
       <r>   45.4634    0.0000 </r>
       <r>   45.7990    0.0000 </r>
       <r>   46.0074    0.0000 </r>
       <r>   46.3721    0.0000 </r>
       <r>   47.0741    0.0000 </r>
       <r>   47.0804    0.0000 </r>
      </set>
      <set comment="kpoint 9">
       <r>   -5.3291    1.0000 </r>
       <r>   -5.2094    1.0000 </r>
       <r>   -5.2094    1.0000 </r>
       <r>   -3.4836    1.0000 </r>
       <r>   -1.5543    1.0000 </r>
       <r>   -1.3614    1.0000 </r>
       <r>   -1.3614    1.0000 </r>
       <r>    1.5467    1.0000 </r>
       <r>    1.9059    1.0000 </r>
       <r>    2.3590    1.0000 </r>
       <r>    2.3590    1.0000 </r>
       <r>    2.9922    1.0000 </r>
       <r>    3.3137    1.0000 </r>
       <r>    4.9415    0.0000 </r>
       <r>    5.6553    0.0000 </r>
       <r>    5.6553    0.0000 </r>
       <r>    6.8887    0.0000 </r>
       <r>    6.8887    0.0000 </r>
       <r>    7.5727    0.0000 </r>
       <r>    8.2406    0.0000 </r>
       <r>    8.2406    0.0000 </r>
       <r>    8.3311    0.0000 </r>
       <r>    8.8870    0.0000 </r>
       <r>    9.4331    0.0000 </r>
       <r>    9.4723    0.0000 </r>
       <r>   10.5453    0.0000 </r>
       <r>   10.5453    0.0000 </r>
       <r>   11.0554    0.0000 </r>
       <r>   12.4915    0.0000 </r>
       <r>   12.5933    0.0000 </r>
       <r>   12.6066    0.0000 </r>
       <r>   12.6066    0.0000 </r>
       <r>   13.7017    0.0000 </r>
       <r>   14.0607    0.0000 </r>
       <r>   14.0607    0.0000 </r>
       <r>   14.4546    0.0000 </r>
       <r>   14.7089    0.0000 </r>
       <r>   15.1910    0.0000 </r>
       <r>   15.1910    0.0000 </r>
       <r>   15.3260    0.0000 </r>
       <r>   16.0075    0.0000 </r>
       <r>   16.2776    0.0000 </r>
       <r>   16.2776    0.0000 </r>
       <r>   17.1522    0.0000 </r>
       <r>   18.3675    0.0000 </r>
       <r>   18.3675    0.0000 </r>
       <r>   18.6334    0.0000 </r>
       <r>   18.7681    0.0000 </r>
       <r>   19.0494    0.0000 </r>
       <r>   19.2203    0.0000 </r>
       <r>   19.2203    0.0000 </r>
       <r>   19.6012    0.0000 </r>
       <r>   20.5891    0.0000 </r>
       <r>   21.7507    0.0000 </r>
       <r>   21.7507    0.0000 </r>
       <r>   22.0304    0.0000 </r>
       <r>   22.4432    0.0000 </r>
       <r>   22.7179    0.0000 </r>
       <r>   22.7179    0.0000 </r>
       <r>   22.7897    0.0000 </r>
       <r>   23.9894    0.0000 </r>
       <r>   24.0179    0.0000 </r>
       <r>   24.0179    0.0000 </r>
       <r>   25.3095    0.0000 </r>
       <r>   25.7360    0.0000 </r>
       <r>   25.7466    0.0000 </r>
       <r>   25.9918    0.0000 </r>
       <r>   25.9918    0.0000 </r>
       <r>   26.9165    0.0000 </r>
       <r>   26.9165    0.0000 </r>
       <r>   27.1988    0.0000 </r>
       <r>   27.2084    0.0000 </r>
       <r>   27.5972    0.0000 </r>
       <r>   27.7691    0.0000 </r>
       <r>   27.7691    0.0000 </r>
       <r>   28.6664    0.0000 </r>
       <r>   28.9458    0.0000 </r>
       <r>   28.9458    0.0000 </r>
       <r>   29.2014    0.0000 </r>
       <r>   29.2433    0.0000 </r>
       <r>   29.8616    0.0000 </r>
       <r>   30.3925    0.0000 </r>
       <r>   30.3925    0.0000 </r>
       <r>   30.5653    0.0000 </r>
       <r>   30.8364    0.0000 </r>
       <r>   30.8364    0.0000 </r>
       <r>   30.9441    0.0000 </r>
       <r>   31.3288    0.0000 </r>
       <r>   32.2580    0.0000 </r>
       <r>   32.2580    0.0000 </r>
       <r>   32.3456    0.0000 </r>
       <r>   32.4333    0.0000 </r>
       <r>   33.1598    0.0000 </r>
       <r>   33.3892    0.0000 </r>
       <r>   33.3892    0.0000 </r>
       <r>   33.4392    0.0000 </r>
       <r>   33.8511    0.0000 </r>
       <r>   33.8511    0.0000 </r>
       <r>   33.8660    0.0000 </r>
       <r>   34.3027    0.0000 </r>
       <r>   34.8311    0.0000 </r>
       <r>   35.3903    0.0000 </r>
       <r>   35.3903    0.0000 </r>
       <r>   35.5164    0.0000 </r>
       <r>   36.1929    0.0000 </r>
       <r>   36.2998    0.0000 </r>
       <r>   36.2998    0.0000 </r>
       <r>   36.4724    0.0000 </r>
       <r>   37.0730    0.0000 </r>
       <r>   37.5032    0.0000 </r>
       <r>   37.5032    0.0000 </r>
       <r>   37.5892    0.0000 </r>
       <r>   37.7291    0.0000 </r>
       <r>   38.6334    0.0000 </r>
       <r>   38.6334    0.0000 </r>
       <r>   38.6801    0.0000 </r>
       <r>   39.3725    0.0000 </r>
       <r>   39.3725    0.0000 </r>
       <r>   39.3958    0.0000 </r>
       <r>   39.4000    0.0000 </r>
       <r>   39.8774    0.0000 </r>
       <r>   39.8774    0.0000 </r>
       <r>   40.1753    0.0000 </r>
       <r>   40.8777    0.0000 </r>
       <r>   41.0331    0.0000 </r>
       <r>   41.5882    0.0000 </r>
       <r>   41.5882    0.0000 </r>
       <r>   41.7349    0.0000 </r>
       <r>   42.3067    0.0000 </r>
       <r>   42.8748    0.0000 </r>
       <r>   43.3474    0.0000 </r>
       <r>   43.3835    0.0000 </r>
       <r>   43.3835    0.0000 </r>
       <r>   43.6416    0.0000 </r>
       <r>   44.2911    0.0000 </r>
       <r>   44.2911    0.0000 </r>
       <r>   44.5739    0.0000 </r>
       <r>   45.3587    0.0000 </r>
       <r>   45.3587    0.0000 </r>
       <r>   45.5690    0.0000 </r>
       <r>   45.7474    0.0000 </r>
       <r>   45.7823    0.0000 </r>
       <r>   45.7824    0.0000 </r>
       <r>   46.2989    0.0000 </r>
      </set>
      <set comment="kpoint 10">
       <r>   -5.1023    1.0000 </r>
       <r>   -5.1023    1.0000 </r>
       <r>   -5.1023    1.0000 </r>
       <r>   -3.7447    1.0000 </r>
       <r>   -1.8540    1.0000 </r>
       <r>   -1.8540    1.0000 </r>
       <r>   -1.8540    1.0000 </r>
       <r>    1.0459    1.0000 </r>
       <r>    3.0800    1.0000 </r>
       <r>    3.0800    1.0000 </r>
       <r>    3.3111    1.0000 </r>
       <r>    3.3111    1.0000 </r>
       <r>    3.3111    1.0000 </r>
       <r>    5.9764    0.0000 </r>
       <r>    5.9764    0.0000 </r>
       <r>    5.9764    0.0000 </r>
       <r>    6.2720    0.0000 </r>
       <r>    6.2720    0.0000 </r>
       <r>    6.2720    0.0000 </r>
       <r>    7.8305    0.0000 </r>
       <r>    7.8305    0.0000 </r>
       <r>    7.8305    0.0000 </r>
       <r>    9.1133    0.0000 </r>
       <r>    9.1133    0.0000 </r>
       <r>    9.9743    0.0000 </r>
       <r>    9.9743    0.0000 </r>
       <r>    9.9743    0.0000 </r>
       <r>   10.0856    0.0000 </r>
       <r>   12.3831    0.0000 </r>
       <r>   13.1460    0.0000 </r>
       <r>   13.1460    0.0000 </r>
       <r>   13.1460    0.0000 </r>
       <r>   15.0832    0.0000 </r>
       <r>   15.0832    0.0000 </r>
       <r>   15.0832    0.0000 </r>
       <r>   15.2566    0.0000 </r>
       <r>   15.2566    0.0000 </r>
       <r>   15.6413    0.0000 </r>
       <r>   15.6413    0.0000 </r>
       <r>   15.6413    0.0000 </r>
       <r>   16.3754    0.0000 </r>
       <r>   16.6514    0.0000 </r>
       <r>   16.6514    0.0000 </r>
       <r>   16.6514    0.0000 </r>
       <r>   16.6871    0.0000 </r>
       <r>   16.6871    0.0000 </r>
       <r>   16.6871    0.0000 </r>
       <r>   17.7909    0.0000 </r>
       <r>   17.7909    0.0000 </r>
       <r>   17.7909    0.0000 </r>
       <r>   18.3289    0.0000 </r>
       <r>   18.3289    0.0000 </r>
       <r>   19.6007    0.0000 </r>
       <r>   21.1303    0.0000 </r>
       <r>   21.1303    0.0000 </r>
       <r>   21.1303    0.0000 </r>
       <r>   24.5766    0.0000 </r>
       <r>   25.1332    0.0000 </r>
       <r>   25.1332    0.0000 </r>
       <r>   25.1332    0.0000 </r>
       <r>   25.4232    0.0000 </r>
       <r>   25.4232    0.0000 </r>
       <r>   25.4232    0.0000 </r>
       <r>   25.9075    0.0000 </r>
       <r>   26.0558    0.0000 </r>
       <r>   26.0558    0.0000 </r>
       <r>   26.2698    0.0000 </r>
       <r>   26.2698    0.0000 </r>
       <r>   26.2698    0.0000 </r>
       <r>   26.6527    0.0000 </r>
       <r>   26.6527    0.0000 </r>
       <r>   26.6527    0.0000 </r>
       <r>   26.8927    0.0000 </r>
       <r>   26.8927    0.0000 </r>
       <r>   26.8927    0.0000 </r>
       <r>   28.3473    0.0000 </r>
       <r>   28.3473    0.0000 </r>
       <r>   28.3473    0.0000 </r>
       <r>   30.1918    0.0000 </r>
       <r>   30.1918    0.0000 </r>
       <r>   30.2768    0.0000 </r>
       <r>   30.5909    0.0000 </r>
       <r>   30.5909    0.0000 </r>
       <r>   30.5909    0.0000 </r>
       <r>   31.5874    0.0000 </r>
       <r>   31.5874    0.0000 </r>
       <r>   31.5874    0.0000 </r>
       <r>   31.7293    0.0000 </r>
       <r>   31.7293    0.0000 </r>
       <r>   32.2430    0.0000 </r>
       <r>   32.2430    0.0000 </r>
       <r>   32.2430    0.0000 </r>
       <r>   32.7338    0.0000 </r>
       <r>   32.7338    0.0000 </r>
       <r>   32.7338    0.0000 </r>
       <r>   33.1789    0.0000 </r>
       <r>   33.1789    0.0000 </r>
       <r>   33.1789    0.0000 </r>
       <r>   33.9253    0.0000 </r>
       <r>   33.9253    0.0000 </r>
       <r>   34.1942    0.0000 </r>
       <r>   35.3286    0.0000 </r>
       <r>   36.6615    0.0000 </r>
       <r>   36.6615    0.0000 </r>
       <r>   36.6615    0.0000 </r>
       <r>   37.0838    0.0000 </r>
       <r>   37.0838    0.0000 </r>
       <r>   37.0838    0.0000 </r>
       <r>   37.2023    0.0000 </r>
       <r>   37.2023    0.0000 </r>
       <r>   37.2023    0.0000 </r>
       <r>   37.5949    0.0000 </r>
       <r>   37.5949    0.0000 </r>
       <r>   38.0098    0.0000 </r>
       <r>   38.0098    0.0000 </r>
       <r>   38.0098    0.0000 </r>
       <r>   38.2817    0.0000 </r>
       <r>   38.2817    0.0000 </r>
       <r>   38.2817    0.0000 </r>
       <r>   38.7436    0.0000 </r>
       <r>   39.4462    0.0000 </r>
       <r>   39.4462    0.0000 </r>
       <r>   39.4462    0.0000 </r>
       <r>   41.3909    0.0000 </r>
       <r>   41.3909    0.0000 </r>
       <r>   41.4173    0.0000 </r>
       <r>   41.7567    0.0000 </r>
       <r>   41.7567    0.0000 </r>
       <r>   41.7567    0.0000 </r>
       <r>   41.8724    0.0000 </r>
       <r>   41.9811    0.0000 </r>
       <r>   41.9811    0.0000 </r>
       <r>   41.9811    0.0000 </r>
       <r>   42.5271    0.0000 </r>
       <r>   42.5271    0.0000 </r>
       <r>   42.5271    0.0000 </r>
       <r>   45.3622    0.0000 </r>
       <r>   45.3622    0.0000 </r>
       <r>   46.0062    0.0000 </r>
       <r>   46.0062    0.0000 </r>
       <r>   46.0062    0.0000 </r>
       <r>   47.5854    0.0000 </r>
       <r>   47.5908    0.0000 </r>
       <r>   47.5913    0.0000 </r>
      </set>
     </set>
     <set comment="spin 2">
      <set comment="kpoint 1">
       <r>   -7.0442    1.0000 </r>
       <r>   -3.3552    1.0000 </r>
       <r>   -3.3552    1.0000 </r>
       <r>   -2.9909    1.0000 </r>
       <r>   -2.9909    1.0000 </r>
       <r>   -2.9909    1.0000 </r>
       <r>    1.5466    1.0000 </r>
       <r>    1.6861    1.0000 </r>
       <r>    1.6861    1.0000 </r>
       <r>    1.6861    1.0000 </r>
       <r>    2.7039    1.0000 </r>
       <r>    2.7039    1.0000 </r>
       <r>    2.7039    1.0000 </r>
       <r>    5.6929    0.0000 </r>
       <r>    5.6929    0.0000 </r>
       <r>    5.6929    0.0000 </r>
       <r>    5.9333    0.0000 </r>
       <r>    5.9333    0.0000 </r>
       <r>    5.9816    0.0000 </r>
       <r>    6.1359    0.0000 </r>
       <r>    6.1359    0.0000 </r>
       <r>    6.1359    0.0000 </r>
       <r>    9.0265    0.0000 </r>
       <r>    9.0265    0.0000 </r>
       <r>    9.0265    0.0000 </r>
       <r>   10.6382    0.0000 </r>
[...]
        <r>  0.0029  0.0001  0.0002  0.0003  0.0000  0.0000  0.0000  0.0000  0.0000 </r>
       </set>
       <set comment="band 117">
        <r>  0.0000  0.0015  0.0001  0.0012  0.0000  0.0000  0.0000  0.0000  0.0000 </r>
        <r>  0.0000  0.0110  0.0000  0.0102  0.0000  0.0000  0.0000  0.0000  0.0000 </r>
        <r>  0.0000  0.0006  0.0032  0.0012  0.0000  0.0000  0.0000  0.0000  0.0000 </r>
        <r>  0.0000  0.0000  0.0110  0.0026  0.0000  0.0000  0.0000  0.0000  0.0000 </r>
        <r>  0.0000  0.0015  0.0032  0.0008  0.0000  0.0000  0.0000  0.0000  0.0000 </r>
        <r>  0.0000  0.0026  0.0102  0.0000  0.0000  0.0000  0.0000  0.0000  0.0000 </r>
        <r>  0.0000  0.0006  0.0001  0.0008  0.0000  0.0000  0.0000  0.0000  0.0000 </r>
       </set>
       <set comment="band 118">
        <r>  0.0000  0.0013  0.0033  0.0005  0.0000  0.0000  0.0000  0.0000  0.0000 </r>
        <r>  0.0000  0.0111  0.0000  0.0117  0.0000  0.0000  0.0000  0.0000  0.0000 </r>
        <r>  0.0000  0.0005  0.0002  0.0005  0.0000  0.0000  0.0000  0.0000  0.0000 </r>
        <r>  0.0000  0.0000  0.0111  0.0009  0.0000  0.0000  0.0000  0.0000  0.0000 </r>
        <r>  0.0000  0.0013  0.0002  0.0015  0.0000  0.0000  0.0000  0.0000  0.0000 </r>
        <r>  0.0000  0.0009  0.0117  0.0000  0.0000  0.0000  0.0000  0.0000  0.0000 </r>
        <r>  0.0000  0.0005  0.0033  0.0015  0.0000  0.0000  0.0000  0.0000  0.0000 </r>
       </set>
       <set comment="band 119">
        <r>  0.0000  0.0009  0.0002  0.0020  0.0000  0.0000  0.0000  0.0000  0.0000 </r>
        <r>  0.0000  0.0017  0.0000  0.0018  0.0000  0.0000  0.0000  0.0000  0.0000 </r>
        <r>  0.0000  0.0025  0.0003  0.0020  0.0000  0.0000  0.0000  0.0000  0.0000 </r>
        <r>  0.0000  0.0000  0.0017  0.0203  0.0000  0.0000  0.0000  0.0000  0.0000 </r>
        <r>  0.0000  0.0009  0.0003  0.0014  0.0000  0.0000  0.0000  0.0000  0.0000 </r>
        <r>  0.0000  0.0203  0.0018  0.0000  0.0000  0.0000  0.0000  0.0000  0.0000 </r>
        <r>  0.0000  0.0025  0.0002  0.0014  0.0000  0.0000  0.0000  0.0000  0.0000 </r>
       </set>
       <set comment="band 120">
        <r>  0.0164  0.0001  0.0001  0.0001  0.0000  0.0000  0.0000  0.0000  0.0000 </r>
        <r>  0.0000  0.0000  0.0001  0.0000  0.0000  0.0000  0.0000  0.0000  0.0000 </r>
        <r>  0.0164  0.0001  0.0001  0.0001  0.0000  0.0000  0.0000  0.0000  0.0000 </r>
        <r>  0.0000  0.0001  0.0000  0.0000  0.0000  0.0000  0.0000  0.0000  0.0000 </r>
        <r>  0.0164  0.0001  0.0001  0.0001  0.0000  0.0000  0.0000  0.0000  0.0000 </r>
        <r>  0.0000  0.0000  0.0000  0.0001  0.0000  0.0000  0.0000  0.0000  0.0000 </r>
        <r>  0.0164  0.0001  0.0001  0.0001  0.0000  0.0000  0.0000  0.0000  0.0000 </r>
       </set>
       <set comment="band 121">
        <r>  0.0236  0.0021  0.0022  0.0011  0.0000  0.0000  0.0000  0.0000  0.0000 </r>
        <r>  0.0010  0.0088  0.0000  0.0009  0.0000  0.0000  0.0000  0.0000  0.0000 </r>
        <r>  0.0061  0.0009  0.0006  0.0004  0.0000  0.0000  0.0000  0.0000  0.0000 </r>
        <r>  0.0006  0.0000  0.0088  0.0017  0.0000  0.0000  0.0000  0.0000  0.0000 </r>
        <r>  0.0078  0.0014  0.0007  0.0001  0.0000  0.0000  0.0000  0.0000  0.0000 </r>
        <r>  0.0052  0.0017  0.0009  0.0000  0.0000  0.0000  0.0000  0.0000  0.0000 </r>
        <r>  0.0143  0.0013  0.0018  0.0004  0.0000  0.0000  0.0000  0.0000  0.0000 </r>
       </set>
       <set comment="band 122">
        <r>  0.0120  0.0012  0.0004  0.0015  0.0000  0.0000  0.0000  0.0000  0.0000 </r>
        <r>  0.0055  0.0020  0.0000  0.0002  0.0000  0.0000  0.0000  0.0000  0.0000 </r>
        <r>  0.0203  0.0021  0.0008  0.0018  0.0000  0.0000  0.0000  0.0000  0.0000 </r>
        <r>  0.0001  0.0000  0.0020  0.0092  0.0000  0.0000  0.0000  0.0000  0.0000 </r>
        <r>  0.0061  0.0009  0.0002  0.0008  0.0000  0.0000  0.0000  0.0000  0.0000 </r>
        <r>  0.0012  0.0092  0.0002  0.0000  0.0000  0.0000  0.0000  0.0000  0.0000 </r>
        <r>  0.0135  0.0018  0.0005  0.0011  0.0000  0.0000  0.0000  0.0000  0.0000 </r>
       </set>
       <set comment="band 123">
        <r>  0.0034  0.0000  0.0006  0.0007  0.0000  0.0000  0.0000  0.0000  0.0000 </r>
        <r>  0.0003  0.0006  0.0000  0.0103  0.0000  0.0000  0.0000  0.0000  0.0000 </r>
        <r>  0.0125  0.0002  0.0019  0.0010  0.0000  0.0000  0.0000  0.0000  0.0000 </r>
        <r>  0.0061  0.0000  0.0006  0.0005  0.0000  0.0000  0.0000  0.0000  0.0000 </r>
        <r>  0.0250  0.0009  0.0024  0.0023  0.0000  0.0000  0.0000  0.0000  0.0000 </r>
        <r>  0.0004  0.0005  0.0103  0.0000  0.0000  0.0000  0.0000  0.0000  0.0000 </r>
        <r>  0.0111  0.0002  0.0009  0.0017  0.0000  0.0000  0.0000  0.0000  0.0000 </r>
       </set>
       <set comment="band 124">
        <r>  0.0000  0.0029  0.0077  0.0015  0.0000  0.0000  0.0000  0.0000  0.0000 </r>
        <r>  0.0000  0.0000  0.0075  0.0000  0.0000  0.0000  0.0000  0.0000  0.0000 </r>
        <r>  0.0000  0.0029  0.0077  0.0015  0.0000  0.0000  0.0000  0.0000  0.0000 </r>
        <r>  0.0000  0.0029  0.0000  0.0000  0.0000  0.0000  0.0000  0.0000  0.0000 </r>
        <r>  0.0000  0.0029  0.0077  0.0015  0.0000  0.0000  0.0000  0.0000  0.0000 </r>
        <r>  0.0000  0.0000  0.0000  0.0015  0.0000  0.0000  0.0000  0.0000  0.0000 </r>
        <r>  0.0000  0.0029  0.0077  0.0015  0.0000  0.0000  0.0000  0.0000  0.0000 </r>
       </set>
       <set comment="band 125">
        <r>  0.0000  0.0051  0.0004  0.0066  0.0000  0.0000  0.0000  0.0000  0.0000 </r>
        <r>  0.0000  0.0000  0.0004  0.0000  0.0000  0.0000  0.0000  0.0000  0.0000 </r>
        <r>  0.0000  0.0051  0.0004  0.0066  0.0000  0.0000  0.0000  0.0000  0.0000 </r>
        <r>  0.0000  0.0050  0.0000  0.0000  0.0000  0.0000  0.0000  0.0000  0.0000 </r>
        <r>  0.0000  0.0051  0.0004  0.0066  0.0000  0.0000  0.0000  0.0000  0.0000 </r>
        <r>  0.0000  0.0000  0.0000  0.0064  0.0000  0.0000  0.0000  0.0000  0.0000 </r>
        <r>  0.0000  0.0051  0.0004  0.0066  0.0000  0.0000  0.0000  0.0000  0.0000 </r>
       </set>
       <set comment="band 126">
        <r>  0.0000  0.0000  0.0000  0.0000  0.0000  0.0000  0.0000  0.0000  0.0000 </r>
        <r>  0.0000  0.0000  0.0000  0.0000  0.0000  0.0000  0.0000  0.0000  0.0000 </r>
        <r>  0.0000  0.0000  0.0000  0.0000  0.0000  0.0000  0.0000  0.0000  0.0000 </r>
        <r>  0.0000  0.0000  0.0000  0.0000  0.0000  0.0000  0.0000  0.0000  0.0000 </r>
        <r>  0.0000  0.0000  0.0000  0.0000  0.0000  0.0000  0.0000  0.0000  0.0000 </r>
        <r>  0.0000  0.0000  0.0000  0.0000  0.0000  0.0000  0.0000  0.0000  0.0000 </r>
        <r>  0.0000  0.0000  0.0000  0.0000  0.0000  0.0000  0.0000  0.0000  0.0000 </r>
       </set>
       <set comment="band 127">
        <r>  0.0008  0.0000  0.0007  0.0030  0.0000  0.0000  0.0000  0.0000  0.0000 </r>
        <r>  0.0058  0.0043  0.0000  0.0005  0.0000  0.0000  0.0000  0.0000  0.0000 </r>
        <r>  0.0002  0.0007  0.0009  0.0041  0.0000  0.0000  0.0000  0.0000  0.0000 </r>
        <r>  0.0029  0.0000  0.0043  0.0009  0.0000  0.0000  0.0000  0.0000  0.0000 </r>
        <r>  0.0003  0.0011  0.0008  0.0037  0.0000  0.0000  0.0000  0.0000  0.0000 </r>
        <r>  0.0268  0.0009  0.0005  0.0000  0.0000  0.0000  0.0000  0.0000  0.0000 </r>
        <r>  0.0005  0.0002  0.0013  0.0033  0.0000  0.0000  0.0000  0.0000  0.0000 </r>
       </set>
       <set comment="band 128">
        <r>  0.0004  0.0000  0.0038  0.0013  0.0000  0.0000  0.0000  0.0000  0.0000 </r>
        <r>  0.0281  0.0011  0.0000  0.0001  0.0000  0.0000  0.0000  0.0000  0.0000 </r>
        <r>  0.0007  0.0001  0.0033  0.0008  0.0000  0.0000  0.0000  0.0000  0.0000 </r>
        <r>  0.0007  0.0000  0.0011  0.0045  0.0000  0.0000  0.0000  0.0000  0.0000 </r>
        <r>  0.0002  0.0004  0.0042  0.0012  0.0000  0.0000  0.0000  0.0000  0.0000 </r>
        <r>  0.0067  0.0045  0.0001  0.0000  0.0000  0.0000  0.0000  0.0000  0.0000 </r>
        <r>  0.0005  0.0005  0.0037  0.0007  0.0000  0.0000  0.0000  0.0000  0.0000 </r>
       </set>
       <set comment="band 129">
        <r>  0.0001  0.0049  0.0005  0.0006  0.0000  0.0000  0.0000  0.0000  0.0000 </r>
        <r>  0.0016  0.0003  0.0000  0.0051  0.0000  0.0000  0.0000  0.0000  0.0000 </r>
        <r>  0.0005  0.0041  0.0008  0.0001  0.0000  0.0000  0.0000  0.0000  0.0000 </r>
        <r>  0.0319  0.0000  0.0003  0.0003  0.0000  0.0000  0.0000  0.0000  0.0000 </r>
        <r>  0.0009  0.0035  0.0000  0.0000  0.0000  0.0000  0.0000  0.0000  0.0000 </r>
        <r>  0.0020  0.0003  0.0051  0.0000  0.0000  0.0000  0.0000  0.0000  0.0000 </r>
        <r>  0.0004  0.0042  0.0000  0.0009  0.0000  0.0000  0.0000  0.0000  0.0000 </r>
       </set>
       <set comment="band 130">
        <r>  0.0076  0.0016  0.0016  0.0016  0.0000  0.0000  0.0000  0.0000  0.0000 </r>
        <r>  0.0000  0.0000  0.0031  0.0000  0.0000  0.0000  0.0000  0.0000  0.0000 </r>
        <r>  0.0076  0.0016  0.0016  0.0016  0.0000  0.0000  0.0000  0.0000  0.0000 </r>
        <r>  0.0000  0.0031  0.0000  0.0000  0.0000  0.0000  0.0000  0.0000  0.0000 </r>
        <r>  0.0076  0.0016  0.0016  0.0016  0.0000  0.0000  0.0000  0.0000  0.0000 </r>
        <r>  0.0000  0.0000  0.0000  0.0031  0.0000  0.0000  0.0000  0.0000  0.0000 </r>
        <r>  0.0076  0.0016  0.0016  0.0016  0.0000  0.0000  0.0000  0.0000  0.0000 </r>
       </set>
       <set comment="band 131">
        <r>  0.0000  0.0004  0.0009  0.0020  0.0000  0.0000  0.0000  0.0000  0.0000 </r>
        <r>  0.0000  0.0000  0.0000  0.0001  0.0000  0.0000  0.0000  0.0000  0.0000 </r>
        <r>  0.0000  0.0014  0.0002  0.0020  0.0000  0.0000  0.0000  0.0000  0.0000 </r>
        <r>  0.0000  0.0000  0.0000  0.0001  0.0000  0.0000  0.0000  0.0000  0.0000 </r>
        <r>  0.0000  0.0004  0.0002  0.0006  0.0000  0.0000  0.0000  0.0000  0.0000 </r>
        <r>  0.0000  0.0001  0.0001  0.0000  0.0000  0.0000  0.0000  0.0000  0.0000 </r>
        <r>  0.0000  0.0014  0.0009  0.0006  0.0000  0.0000  0.0000  0.0000  0.0000 </r>
       </set>
       <set comment="band 132">
        <r>  0.0000  0.0020  0.0011  0.0005  0.0000  0.0000  0.0000  0.0000  0.0000 </r>
        <r>  0.0000  0.0001  0.0000  0.0001  0.0000  0.0000  0.0000  0.0000  0.0000 </r>
        <r>  0.0000  0.0000  0.0007  0.0005  0.0000  0.0000  0.0000  0.0000  0.0000 </r>
        <r>  0.0000  0.0000  0.0001  0.0001  0.0000  0.0000  0.0000  0.0000  0.0000 </r>
        <r>  0.0000  0.0020  0.0007  0.0011  0.0000  0.0000  0.0000  0.0000  0.0000 </r>
        <r>  0.0000  0.0001  0.0001  0.0000  0.0000  0.0000  0.0000  0.0000  0.0000 </r>
        <r>  0.0000  0.0000  0.0011  0.0011  0.0000  0.0000  0.0000  0.0000  0.0000 </r>
       </set>
       <set comment="band 133">
        <r>  0.0000  0.0004  0.0007  0.0002  0.0000  0.0000  0.0000  0.0000  0.0000 </r>
        <r>  0.0000  0.0001  0.0000  0.0001  0.0000  0.0000  0.0000  0.0000  0.0000 </r>
        <r>  0.0000  0.0014  0.0018  0.0002  0.0000  0.0000  0.0000  0.0000  0.0000 </r>
        <r>  0.0000  0.0000  0.0001  0.0000  0.0000  0.0000  0.0000  0.0000  0.0000 </r>
        <r>  0.0000  0.0004  0.0018  0.0010  0.0000  0.0000  0.0000  0.0000  0.0000 </r>
        <r>  0.0000  0.0000  0.0001  0.0000  0.0000  0.0000  0.0000  0.0000  0.0000 </r>
        <r>  0.0000  0.0014  0.0007  0.0010  0.0000  0.0000  0.0000  0.0000  0.0000 </r>
       </set>
       <set comment="band 134">
        <r>  0.0268  0.0000  0.0001  0.0001  0.0000  0.0000  0.0000  0.0000  0.0000 </r>
        <r>  0.0024  0.0000  0.0000  0.0000  0.0000  0.0000  0.0000  0.0000  0.0000 </r>
        <r>  0.0058  0.0001  0.0001  0.0003  0.0000  0.0000  0.0000  0.0000  0.0000 </r>
        <r>  0.0010  0.0000  0.0000  0.0000  0.0000  0.0000  0.0000  0.0000  0.0000 </r>
        <r>  0.0090  0.0002  0.0001  0.0002  0.0000  0.0000  0.0000  0.0000  0.0000 </r>
        <r>  0.0082  0.0000  0.0000  0.0000  0.0000  0.0000  0.0000  0.0000  0.0000 </r>
        <r>  0.0126  0.0000  0.0002  0.0002  0.0000  0.0000  0.0000  0.0000  0.0000 </r>
       </set>
       <set comment="band 135">
        <r>  0.0103  0.0000  0.0002  0.0002  0.0000  0.0000  0.0000  0.0000  0.0000 </r>
        <r>  0.0086  0.0000  0.0000  0.0000  0.0000  0.0000  0.0000  0.0000  0.0000 </r>
        <r>  0.0219  0.0001  0.0001  0.0001  0.0000  0.0000  0.0000  0.0000  0.0000 </r>
        <r>  0.0002  0.0000  0.0000  0.0000  0.0000  0.0000  0.0000  0.0000  0.0000 </r>
        <r>  0.0056  0.0001  0.0003  0.0001  0.0000  0.0000  0.0000  0.0000  0.0000 </r>
        <r>  0.0028  0.0000  0.0000  0.0000  0.0000  0.0000  0.0000  0.0000  0.0000 </r>
        <r>  0.0163  0.0001  0.0002  0.0000  0.0000  0.0000  0.0000  0.0000  0.0000 </r>
       </set>
       <set comment="band 136">
        <r>  0.0035  0.0003  0.0001  0.0001  0.0000  0.0000  0.0000  0.0000  0.0000 </r>
        <r>  0.0005  0.0000  0.0000  0.0000  0.0000  0.0000  0.0000  0.0000  0.0000 </r>
        <r>  0.0129  0.0002  0.0002  0.0000  0.0000  0.0000  0.0000  0.0000  0.0000 </r>
        <r>  0.0104  0.0000  0.0000  0.0000  0.0000  0.0000  0.0000  0.0000  0.0000 </r>
        <r>  0.0260  0.0001  0.0000  0.0000  0.0000  0.0000  0.0000  0.0000  0.0000 </r>
        <r>  0.0006  0.0000  0.0000  0.0000  0.0000  0.0000  0.0000  0.0000  0.0000 </r>
        <r>  0.0117  0.0002  0.0000  0.0002  0.0000  0.0000  0.0000  0.0000  0.0000 </r>
       </set>
       <set comment="band 137">
        <r>  0.0000  0.0005  0.0003  0.0004  0.0000  0.0000  0.0000  0.0000  0.0000 </r>
        <r>  0.0000  0.0000  0.0003  0.0000  0.0000  0.0000  0.0000  0.0000  0.0000 </r>
        <r>  0.0000  0.0005  0.0003  0.0004  0.0000  0.0000  0.0000  0.0000  0.0000 </r>
        <r>  0.0000  0.0004  0.0000  0.0000  0.0000  0.0000  0.0000  0.0000  0.0000 </r>
        <r>  0.0000  0.0005  0.0003  0.0004  0.0000  0.0000  0.0000  0.0000  0.0000 </r>
        <r>  0.0000  0.0000  0.0000  0.0004  0.0000  0.0000  0.0000  0.0000  0.0000 </r>
        <r>  0.0000  0.0005  0.0003  0.0004  0.0000  0.0000  0.0000  0.0000  0.0000 </r>
       </set>
       <set comment="band 138">
        <r>  0.0000  0.0004  0.0005  0.0004  0.0000  0.0000  0.0000  0.0000  0.0000 </r>
        <r>  0.0000  0.0000  0.0004  0.0000  0.0000  0.0000  0.0000  0.0000  0.0000 </r>
        <r>  0.0000  0.0004  0.0005  0.0004  0.0000  0.0000  0.0000  0.0000  0.0000 </r>
        <r>  0.0000  0.0003  0.0000  0.0000  0.0000  0.0000  0.0000  0.0000  0.0000 </r>
        <r>  0.0000  0.0004  0.0005  0.0004  0.0000  0.0000  0.0000  0.0000  0.0000 </r>
        <r>  0.0000  0.0000  0.0000  0.0003  0.0000  0.0000  0.0000  0.0000  0.0000 </r>
        <r>  0.0000  0.0004  0.0005  0.0004  0.0000  0.0000  0.0000  0.0000  0.0000 </r>
       </set>
       <set comment="band 139">
        <r>  0.0000  0.0001  0.0000  0.0000  0.0000  0.0000  0.0000  0.0000  0.0000 </r>
        <r>  0.0000  0.0000  0.0000  0.0000  0.0000  0.0000  0.0000  0.0000  0.0000 </r>
        <r>  0.0000  0.0000  0.0001  0.0000  0.0000  0.0000  0.0000  0.0000  0.0000 </r>
        <r>  0.0000  0.0000  0.0000  0.0000  0.0000  0.0000  0.0000  0.0000  0.0000 </r>
        <r>  0.0000  0.0001  0.0001  0.0000  0.0000  0.0000  0.0000  0.0000  0.0000 </r>
        <r>  0.0000  0.0000  0.0000  0.0000  0.0000  0.0000  0.0000  0.0000  0.0000 </r>
        <r>  0.0000  0.0000  0.0000  0.0000  0.0000  0.0000  0.0000  0.0000  0.0000 </r>
       </set>
       <set comment="band 140">
        <r>  0.0000  0.0001  0.0001  0.0000  0.0000  0.0000  0.0000  0.0000  0.0000 </r>
        <r>  0.0000  0.0000  0.0000  0.0000  0.0000  0.0000  0.0000  0.0000  0.0000 </r>
        <r>  0.0000  0.0000  0.0000  0.0000  0.0000  0.0000  0.0000  0.0000  0.0000 </r>
        <r>  0.0000  0.0000  0.0000  0.0000  0.0000  0.0000  0.0000  0.0000  0.0000 </r>
        <r>  0.0000  0.0001  0.0000  0.0001  0.0000  0.0000  0.0000  0.0000  0.0000 </r>
        <r>  0.0000  0.0000  0.0000  0.0000  0.0000  0.0000  0.0000  0.0000  0.0000 </r>
        <r>  0.0000  0.0000  0.0001  0.0001  0.0000  0.0000  0.0000  0.0000  0.0000 </r>
       </set>
       <set comment="band 141">
        <r>  0.0000  0.0000  0.0000  0.0001  0.0000  0.0000  0.0000  0.0000  0.0000 </r>
        <r>  0.0000  0.0000  0.0000  0.0000  0.0000  0.0000  0.0000  0.0000  0.0000 </r>
        <r>  0.0000  0.0001  0.0000  0.0001  0.0000  0.0000  0.0000  0.0000  0.0000 </r>
        <r>  0.0000  0.0000  0.0000  0.0000  0.0000  0.0000  0.0000  0.0000  0.0000 </r>
        <r>  0.0000  0.0000  0.0000  0.0001  0.0000  0.0000  0.0000  0.0000  0.0000 </r>
        <r>  0.0000  0.0000  0.0000  0.0000  0.0000  0.0000  0.0000  0.0000  0.0000 </r>
        <r>  0.0000  0.0001  0.0000  0.0001  0.0000  0.0000  0.0000  0.0000  0.0000 </r>
       </set>
       <set comment="band 142">
        <r>  0.0014  0.0001  0.0007  0.0007  0.0000  0.0000  0.0000  0.0000  0.0000 </r>
        <r>  0.0000  0.0000  0.0039  0.0009  0.0000  0.0000  0.0000  0.0000  0.0000 </r>
        <r>  0.0091  0.0018  0.0007  0.0011  0.0000  0.0000  0.0000  0.0000  0.0000 </r>
        <r>  0.0002  0.0038  0.0000  0.0000  0.0000  0.0000  0.0000  0.0000  0.0000 </r>
        <r>  0.0002  0.0001  0.0003  0.0003  0.0000  0.0000  0.0000  0.0000  0.0000 </r>
        <r>  0.0000  0.0001  0.0009  0.0036  0.0000  0.0000  0.0000  0.0000  0.0000 </r>
        <r>  0.0090  0.0019  0.0010  0.0008  0.0000  0.0000  0.0000  0.0000  0.0000 </r>
       </set>
       <set comment="band 143">
        <r>  0.0071  0.0003  0.0003  0.0008  0.0000  0.0000  0.0000  0.0000  0.0000 </r>
        <r>  0.0001  0.0019  0.0000  0.0002  0.0000  0.0000  0.0000  0.0000  0.0000 </r>
        <r>  0.0024  0.0001  0.0002  0.0006  0.0000  0.0000  0.0000  0.0000  0.0000 </r>
        <r>  0.0001  0.0000  0.0019  0.0005  0.0000  0.0000  0.0000  0.0000  0.0000 </r>
        <r>  0.0023  0.0000  0.0002  0.0006  0.0000  0.0000  0.0000  0.0000  0.0000 </r>
        <r>  0.0005  0.0005  0.0002  0.0000  0.0000  0.0000  0.0000  0.0000  0.0000 </r>
        <r>  0.0044  0.0001  0.0002  0.0007  0.0000  0.0000  0.0000  0.0000  0.0000 </r>
       </set>
       <set comment="band 144">
        <r>  0.0041  0.0001  0.0007  0.0002  0.0000  0.0000  0.0000  0.0000  0.0000 </r>
        <r>  0.0005  0.0006  0.0000  0.0000  0.0000  0.0000  0.0000  0.0000  0.0000 </r>
        <r>  0.0060  0.0001  0.0008  0.0003  0.0000  0.0000  0.0000  0.0000  0.0000 </r>
        <r>  0.0000  0.0000  0.0006  0.0020  0.0000  0.0000  0.0000  0.0000  0.0000 </r>
        <r>  0.0020  0.0000  0.0006  0.0002  0.0000  0.0000  0.0000  0.0000  0.0000 </r>
        <r>  0.0002  0.0020  0.0001  0.0000  0.0000  0.0000  0.0000  0.0000  0.0000 </r>
        <r>  0.0040  0.0000  0.0007  0.0003  0.0000  0.0000  0.0000  0.0000  0.0000 </r>
       </set>
      </set>
     </set>
    </set>
   </array>
  </projected>
 </calculation>
 <structure name="finalpos" >
  <crystal>
   <varray name="basis" >
    <v>       5.43784835       0.00000000       0.00000000 </v>
    <v>       0.00000000       5.43784835       0.00000000 </v>
    <v>       0.00000000       0.00000000       5.43784835 </v>
   </varray>
   <i name="volume">    160.79823434 </i>
   <varray name="rec_basis" >
    <v>       0.18389626       0.00000000       0.00000000 </v>
    <v>       0.00000000       0.18389626       0.00000000 </v>
    <v>       0.00000000       0.00000000       0.18389626 </v>
   </varray>
  </crystal>
  <varray name="positions" >
   <v>       0.24298019       0.75701981       0.24298019 </v>
   <v>       0.00000000       0.00000000       0.50000000 </v>
   <v>       0.24298019       0.24298019       0.75701981 </v>
   <v>       0.00000000       0.50000000       0.00000000 </v>
   <v>       0.75701981       0.75701981       0.75701981 </v>
   <v>       0.50000000       0.00000000       0.00000000 </v>
   <v>       0.75701981       0.24298019       0.24298019 </v>
  </varray>
 </structure>
</modeling>
