LAMMPS (29 Aug 2024 - Development - patch_29Aug2024-704-g6d0e633edf)
# LAMMPS input generated from LammpsInputFile with pymatgen v2024.10.29

# Initialization
units metal
atom_style atomic
dimension 3
boundary p p p
pair_style tersoff

# AtomDefinition
read_data system.data
Reading data file ...
  triclinic box = (0 0 0) to (89.998094 77.940639 73.483137) with tilt (44.999049 44.999049 25.980211)
WARNING: Triclinic box skew is large. LAMMPS will run inefficiently. (src/domain.cpp:221)
  1 by 1 by 1 MPI processor grid
  reading atoms ...
  250 atoms
  read_data CPU = 0.001 seconds

# ForceField
include forcefield.lammps
pair_coeff * * /Users/virkaran/Code/Notebooks/lammps_flows/pmg_data/Si.tersoff Si
Reading tersoff potential file /Users/virkaran/Code/Notebooks/lammps_flows/pmg_data/Si.tersoff with DATE: 2007-10-25

# Velocities
velocity all create 1000 42 mom yes rot yes dist gaussian
neigh_modify delay 5 every 1 check yes

# Ensemble
fix 1 all npt temp 1000 1000 0.1 iso 1.0 1.0 0.1

# Outputs
thermo 100
dump d1 all custom 100 traj.dump id element x y z vx vy vz fx fy fz
dump_modify d1 sort id element Si

# Actions
write_restart md.restart
System init for write_restart ...
Neighbor list info ...
  update: every = 1 steps, delay = 5 steps, check = yes
  max neighbors/atom: 2000, page size: 100000
  master list distance cutoff = 5.2
  ghost atom cutoff = 5.2
  binsize = 2.6, bins = 70 40 29
  1 neighbor lists, perpetual/occasional/extra = 1 0 0
  (1) pair tersoff, perpetual
      attributes: full, newton on
      pair build: full/bin/atomonly
      stencil: full/bin/3d
      bin: standard
timestep 0.001
run 10000

CITE-CITE-CITE-CITE-CITE-CITE-CITE-CITE-CITE-CITE-CITE-CITE-CITE

Your simulation uses code contributions which should be cited:

- Type Label Framework: https://doi.org/10.1021/acs.jpcb.3c08419

@Article{Gissinger24,
 author = {Jacob R. Gissinger, Ilia Nikiforov, Yaser Afshar, Brendon Waters, Moon-ki Choi, Daniel S. Karls, Alexander Stukowski, Wonpil Im, Hendrik Heinz, Axel Kohlmeyer, and Ellad B. Tadmor},
 title = {Type Label Framework for Bonded Force Fields in LAMMPS},
 journal = {J. Phys. Chem. B},
 year =    2024,
 volume =  128,
 number =  13,
 pages =   {3282--3297}
}

CITE-CITE-CITE-CITE-CITE-CITE-CITE-CITE-CITE-CITE-CITE-CITE-CITE

Per MPI rank memory allocation (min/avg/max) = 3.569 | 3.569 | 3.569 Mbytes
   Step          Temp          E_pair         E_mol          TotEng         Press          Volume    
         0   1000          -1080.704       0             -1048.5182     -58.998336      515448.12    
       100   1074.9874     -1085.72        0             -1051.1207     -9.4276925      529750.69    
       200   939.28684     -1083.8598      0             -1053.6282      36.68491       563294.26    
       300   1000.2756     -1085.6589      0             -1053.4643      40.097785      615928.78    
       400   961.04904     -1084.1583      0             -1053.2262      26.571247      710091.96    
       500   1039.3466     -1085.4081      0             -1051.9559      3.6960777      810543.22    
       600   1074.205      -1084.3851      0             -1049.811       14.443602      916151.04    
       700   1039.4344     -1084.9881      0             -1051.5331      30.399175      1028702.7    
       800   968.94574     -1086.3884      0             -1055.2021      17.883157      1201846.6    
       900   942.71784     -1085.3431      0             -1055.001       3.3159127      1367136.8    
      1000   972.3385      -1084.526       0             -1053.2305     -16.229688      1571187.4    
      1100   966.64079     -1084.0352      0             -1052.9231     -17.987435      1779271.4    
      1200   975.96523     -1084.369       0             -1052.9568      1.4400024      1984872.9    
      1300   1030.352      -1085.2838      0             -1052.1211     -6.7345232      2157164.4    
      1400   1080.4504     -1085.2867      0             -1050.5116     -1.5951505      2345005.7    
      1500   1144.0107     -1083.0336      0             -1046.2127     -4.3283182      2505471.1    
      1600   1091.8219     -1082.8656      0             -1047.7245     -4.4648747      2604588.5    
      1700   1097.2        -1086.2241      0             -1050.9098      0.80970822     2657026.2    
      1800   1092.5235     -1087.2503      0             -1052.0866      0.45719486     2712864.5    
      1900   956.21915     -1084.1348      0             -1053.3582     -15.307442      2670962.5    
      2000   989.42264     -1085.9121      0             -1054.0667      3.5125481      2571809      
      2100   969.54606     -1085.2902      0             -1054.0846      11.473801      2444708.9    
      2200   1030.5661     -1084.8086      0             -1051.6391     -7.3769205      2309678.4    
      2300   1051.9942     -1083.5885      0             -1049.7292      5.5277803      2140371.2    
      2400   1018.4376     -1084.3518      0             -1051.5726      0.33569437     1998452.8    
      2500   934.60529     -1085.456       0             -1055.375       8.6935219      1894407.2    
      2600   987.4498      -1086.6978      0             -1054.916       1.0470634      1825864.6    
      2700   1020.0697     -1085.9573      0             -1053.1255      2.1798505      1771466.3    
      2800   975.45293     -1082.7873      0             -1051.3916     -8.9874269      1729379.3    
      2900   1079.9856     -1084.687       0             -1049.9268      25.573851      1635595.9    
      3000   1007.6529     -1082.8881      0             -1050.456       6.084103       1611013.8    
      3100   1043.5603     -1087.4495      0             -1053.8617      14.286617      1580512.6    
      3200   899.12757     -1084.274       0             -1055.3349      1.4671483      1562733.2    
      3300   973.72598     -1084.6533      0             -1053.3132     -4.8863281      1555461.7    
      3400   1072.213      -1084.8757      0             -1050.3656     -11.250704      1543058.8    
      3500   976.91693     -1082.3676      0             -1050.9248      12.290073      1539894.9    
      3600   989.13654     -1083.839       0             -1052.0028      34.192221      1503901.2    
      3700   991.32819     -1085.237       0             -1053.3304      8.3051693      1541143.3    
      3800   975.49964     -1085.3196      0             -1053.9224     -0.66687315     1605493.8    
      3900   1023.0585     -1086.1872      0             -1053.2592     -11.827181      1616405.2    
      4000   1031.6998     -1083.5063      0             -1050.3002     -2.1666392      1660689.9    
      4100   1097.94       -1083.8615      0             -1048.5235     -17.138443      1681880.2    
      4200   1054.4938     -1086.2407      0             -1052.301      -9.6000088      1662534.8    
      4300   976.92217     -1086.4349      0             -1054.9919     -5.5524794      1720433.7    
      4400   1008.1701     -1086.4511      0             -1054.0024      15.965473      1723868.4    
      4500   1078.9468     -1086.3293      0             -1051.6026     -11.434449      1766416.5    
      4600   1097.2889     -1085.6616      0             -1050.3445     -19.448149      1815214.7    
      4700   1021.1989     -1086.6543      0             -1053.7863     -19.005339      1866052.8    
      4800   960.01597     -1087.5522      0             -1056.6533     -19.398878      1896934.4    
      4900   1001.5788     -1087.6667      0             -1055.4301      3.4823986      1904034.8    
      5000   978.13491     -1084.2617      0             -1052.7797      8.7190288      1958916.5    
      5100   1021.7432     -1084.1167      0             -1051.2311     -1.6890522      1974741.1    
      5200   961.41788     -1082.7785      0             -1051.8346     -0.3027866      1993305.1    
      5300   938.30303     -1083.231       0             -1053.031       12.219827      1994998.8    
      5400   964.68078     -1084.1374      0             -1053.0884     -8.674296       1968905.4    
      5500   1029.408      -1085.0072      0             -1051.8749     -8.0558739      1966500.5    
      5600   1083.0227     -1082.1658      0             -1047.3078     -4.8440456      1931641.8    
      5700   1035.0474     -1082.8351      0             -1049.5213     -12.228907      1916028.2    
      5800   960.81985     -1084.2173      0             -1053.2926     -2.1645183      1885947.3    
      5900   921.37143     -1084.459       0             -1054.8039     -7.0807768      1814164.9    
      6000   1031.929      -1087.4536      0             -1054.2402     -5.5518222      1755310.9    
      6100   1000.4333     -1084.2011      0             -1052.0014     -27.034149      1688427.5    
      6200   1073.2089     -1084.355       0             -1049.8129     -1.6911726      1648240      
      6300   1095.3823     -1085.9034      0             -1050.6477      6.8190894      1632814.6    
      6400   943.16671     -1084.898       0             -1054.5415     -11.133257      1557869.4    
      6500   936.50097     -1085.0307      0             -1054.8887     -12.145686      1525001.3    
      6600   1020.2112     -1085.1369      0             -1052.3006     -11.119604      1457139.6    
      6700   1077.5514     -1084.2469      0             -1049.5651      23.673289      1374703.9    
      6800   1008.2402     -1083.2596      0             -1050.8086      18.308974      1406563.2    
      6900   1040.0607     -1086.184       0             -1052.7089     -1.2067556      1451728.1    
      7000   1008.8789     -1087.3958      0             -1054.9243      3.4366605      1499698.5    
      7100   1053.0346     -1089.3113      0             -1055.4185     -3.2537875      1564857.6    
      7200   1039.0571     -1085.9982      0             -1052.5553     -20.369138      1681307      
      7300   1055.7605     -1082.6022      0             -1048.6217     -14.445391      1775676.5    
      7400   1060.2801     -1085.201       0             -1051.075       0.70674179     1992823.4    
      7500   1003.3879     -1085.6171      0             -1053.3223      27.956816      2107483.5    
      7600   986.71725     -1086.366       0             -1054.6078      16.136543      2276572.7    
      7700   946.53978     -1085.1712      0             -1054.7061      3.3389928      2453224.1    
      7800   1010.7103     -1083.0515      0             -1050.521       11.706016      2521435.8    
      7900   1118.7273     -1085.1401      0             -1049.1329      7.7267283      2570228.4    
      8000   982.89819     -1084.3374      0             -1052.7021      0.25897808     2641119.7    
      8100   943.21585     -1084.9728      0             -1054.6147     -10.155572      2664320.8    
      8200   957.39875     -1085.9489      0             -1055.1343      3.3122657      2562060.9    
      8300   919.42856     -1084.5698      0             -1054.9773     -9.0410734      2511910.1    
      8400   1046.1637     -1085.1643      0             -1051.4928      19.996505      2355815.5    
      8500   1141.02       -1086.5093      0             -1049.7847      9.0558529      2192887.3    
      8600   1055.3876     -1087.0493      0             -1053.0808     -6.8821321      2038281.4    
      8700   932.96717     -1084.9274      0             -1054.8992      11.860833      1910121.4    
      8800   986.79066     -1086.2338      0             -1054.4732      8.8474276      1757837.9    
      8900   992.7179      -1084.964       0             -1053.0126      2.039384       1630067.8    
      9000   1072.8068     -1086.0333      0             -1051.5042     -17.452971      1535956.1    
      9100   1068.102      -1086.9815      0             -1052.6038      14.375626      1446174.7    
      9200   960.53947     -1087.4896      0             -1056.5738      3.9527716      1425963.6    
      9300   905.63845     -1086.2008      0             -1057.0522      20.159188      1394268.8    
      9400   945.04446     -1084.9527      0             -1054.5357      30.759512      1359737.3    
      9500   959.96452     -1083.2522      0             -1052.355       8.4221211      1402857.8    
      9600   988.46396     -1084.1734      0             -1052.359       0.55962551     1369902.2    
      9700   1051.9226     -1088.12        0             -1054.263      -3.6255621      1364284.6    
      9800   930.71327     -1085.9235      0             -1055.9677     -51.865759      1432609.7    
      9900   998.69989     -1087.6496      0             -1055.5057     -20.546927      1440034.3    
     10000   1017.7602     -1087.0047      0             -1054.2473      2.3909156      1484164.2    
Loop time of 4.37531 on 1 procs for 10000 steps with 250 atoms

Performance: 197.472 ns/day, 0.122 hours/ns, 2285.550 timesteps/s, 571.388 katom-step/s
98.4% CPU use with 1 MPI tasks x no OpenMP threads

MPI task timing breakdown:
Section |  min time  |  avg time  |  max time  |%varavg| %total
---------------------------------------------------------------
Pair    | 4.0598     | 4.0598     | 4.0598     |   0.0 | 92.79
Neigh   | 0.18213    | 0.18213    | 0.18213    |   0.0 |  4.16
Comm    | 0.010849   | 0.010849   | 0.010849   |   0.0 |  0.25
Output  | 0.050673   | 0.050673   | 0.050673   |   0.0 |  1.16
Modify  | 0.064346   | 0.064346   | 0.064346   |   0.0 |  1.47
Other   |            | 0.007485   |            |       |  0.17

Nlocal:            250 ave         250 max         250 min
Histogram: 1 0 0 0 0 0 0 0 0 0
Nghost:             81 ave          81 max          81 min
Histogram: 1 0 0 0 0 0 0 0 0 0
Neighs:              0 ave           0 max           0 min
Histogram: 1 0 0 0 0 0 0 0 0 0
FullNghs:         1826 ave        1826 max        1826 min
Histogram: 1 0 0 0 0 0 0 0 0 0

Total # of neighbors = 1826
Ave neighs/atom = 7.304
Neighbor list builds = 757
Dangerous builds = 190
Total wall time: 0:00:04
