LAMMPS (29 Aug 2024 - Development - patch_29Aug2024-704-g6d0e633edf)
# LAMMPS input generated from LammpsInputFile with pymatgen v2024.10.29

# Sample input script template for MD

# Initialization

# Stage 3
units metal
atom_style atomic
dimension 3
boundary p p p

# Atom definition

# md.restart
read_data system.data
Reading data file ...
  triclinic box = (0 0 0) to (3.823792 3.311501 3.122113) with tilt (1.911896 1.911896 1.103834)
WARNING: Triclinic box skew is large. LAMMPS will run inefficiently. (src/domain.cpp:221)
  1 by 1 by 1 MPI processor grid
  reading atoms ...
  2 atoms
  read_data CPU = 0.000 seconds

# Force field settings (consult official document for detailed formats)

# Stage 7
pair_style tersoff
pair_coeff * * /Users/virkaran/Code/Notebooks/lammps_flows/test_new/../pmg_data/Si.tersoff Si
Reading tersoff potential file /Users/virkaran/Code/Notebooks/lammps_flows/test_new/../pmg_data/Si.tersoff with DATE: 2007-10-25

# Create velocities
velocity all create 300 42 mom yes rot yes dist gaussian

# Stage 9
neigh_modify delay 5 every 1 check yes

# Ensemble constraints 1 all nve 2 all nose-hoover 300 300 0.1
fix 3 all npt temp 300 300 0.1 iso 0 0 0.1

# Output settings
thermo 100
dump d1 all custom 100 traj.dump id element x y z vx vy vz fx fy fz
dump_modify d1 sort id element Si

# Actions
timestep 0.001
run 10000

CITE-CITE-CITE-CITE-CITE-CITE-CITE-CITE-CITE-CITE-CITE-CITE-CITE

Your simulation uses code contributions which should be cited:

- Type Label Framework: https://doi.org/10.1021/acs.jpcb.3c08419

@Article{Gissinger24,
 author = {Jacob R. Gissinger, Ilia Nikiforov, Yaser Afshar, Brendon Waters, Moon-ki Choi, Daniel S. Karls, Alexander Stukowski, Wonpil Im, Hendrik Heinz, Axel Kohlmeyer, and Ellad B. Tadmor},
 title = {Type Label Framework for Bonded Force Fields in LAMMPS},
 journal = {J. Phys. Chem. B},
 year =    2024,
 volume =  128,
 number =  13,
 pages =   {3282--3297}
}

CITE-CITE-CITE-CITE-CITE-CITE-CITE-CITE-CITE-CITE-CITE-CITE-CITE

Neighbor list info ...
  update: every = 1 steps, delay = 5 steps, check = yes
  max neighbors/atom: 2000, page size: 100000
  master list distance cutoff = 5.2
  ghost atom cutoff = 5.2
  binsize = 2.6, bins = 3 2 2
  1 neighbor lists, perpetual/occasional/extra = 1 0 0
  (1) pair tersoff, perpetual
      attributes: full, newton on
      pair build: full/bin/atomonly
      stencil: full/bin/3d
      bin: standard
Per MPI rank memory allocation (min/avg/max) = 3.099 | 3.099 | 3.099 Mbytes
   Step          Temp          E_pair         E_mol          TotEng         Press          Volume    
         0   300           -9.2248218      0             -9.1860438      16937.361      39.533728    
       100   530.53335     -9.2529849      0             -9.1844081      17626.273      39.449486    
       200   407.75356     -9.2141195      0             -9.1614132      5725.3926      40.031315    
       300   151.57619     -9.0893683      0             -9.0697755     -40278.303      42.545692    
       400   96.801316     -9.1094135      0             -9.096901      -42914.816      42.584331    
       500   256.72377     -9.2283448      0             -9.1951607     -24216.521      41.247198    
       600   311.88016     -9.2549122      0             -9.2145985     -5996.0949      40.366008    
       700   145.32122     -9.2206602      0             -9.201876       3606.7781      40.058809    
       800   168.10281     -9.1654341      0             -9.1437051      4358.3132      40.220549    
       900   688.92965     -9.1004054      0             -9.0113543     -7922.6621      41.058516    
      1000   297.15207     -9.2062214      0             -9.1678114     -23068.428      41.282567    
      1100   334.81895     -9.2499201      0             -9.2066413     -10757.494      40.588574    
      1200   218.7583      -9.220762       0             -9.1924852      28225.407      39.103292    
      1300   73.003265     -9.1577527      0             -9.1483162      42148.105      38.762714    
      1400   436.2585      -9.1786511      0             -9.1222603      18202.451      39.651806    
      1500   710.90044     -9.2378583      0             -9.1459672      1256.5659      40.177955    
      1600   245.33593     -9.2511637      0             -9.2194516     -6723.5065      40.399737    
      1700   16.384783     -9.2227703      0             -9.2206524     -24208.187      41.230648    
      1800   133.77836     -9.1975251      0             -9.1802329     -48546.48       42.509249    
      1900   553.17321     -9.2343198      0             -9.1628166     -37080.523      41.869838    
      2000   397.19219     -9.2204971      0             -9.169156       4423.5302      40.061361    
      2100   24.876231     -9.171562       0             -9.1683465      17384.8        39.65118     
      2200   230.99426     -9.2105668      0             -9.1807085      18851.311      39.495216    
      2300   398.51909     -9.2533406      0             -9.2018279      22259.247      39.252783    
      2400   103.21887     -9.2434895      0             -9.2301475      17537.059      39.424708    
      2500   7.6135709     -9.2353089      0             -9.2343248     -25662.275      41.249533    
      2600   151.53385     -9.2440101      0             -9.2244228     -28418.516      41.365591    
      2700   472.80438     -9.2319782      0             -9.1708634     -24352.922      41.272896    
      2800   167.67237     -9.1718816      0             -9.1502082     -20272.594      41.263991    
      2900   87.064788     -9.1711212      0             -9.1598672     -12586.74       40.911738    
      3000   330.531       -9.2156774      0             -9.1729529      48666.833      38.390422    
      3100   194.27858     -9.2371366      0             -9.2120241      44514.204      38.458006    
      3200   26.299648     -9.2312865      0             -9.227887       31040.678      38.940927    
      3300   118.50749     -9.2202907      0             -9.2049724      18716.342      39.454171    
      3400   744.41738     -9.2348631      0             -9.1386396     -5561.3485      40.478215    
      3500   802.98536     -9.1653051      0             -9.0615111     -65723.743      43.662282    
      3600   199.36549     -9.1918148      0             -9.1660448     -44933.686      42.362087    
      3700   27.130762     -9.2123173      0             -9.2088104     -28054.347      41.446987    
      3800   269.87795     -9.2519886      0             -9.2171042     -11500.263      40.603857    
      3900   916.06382     -9.2445095      0             -9.126099       12896.567      39.714145    
      4000   592.06009     -9.0730567      0             -8.996527       96917.479      37.215675    
      4100   118.56718     -9.1498637      0             -9.1345377      61617.869      38.103335    
      4200   82.011659     -9.2113416      0             -9.2007407      23348.504      39.299203    
      4300   357.27042     -9.2556502      0             -9.2094694      491.81825      40.100308    
      4400   542.13781     -9.2265504      0             -9.1564736     -23180.091      41.250037    
      4500   446.45682     -9.0259581      0             -8.968249      -63607.067      44.126335    
      4600   44.158042     -9.0820638      0             -9.0763559     -59191.406      43.544573    
      4700   130.66693     -9.1963648      0             -9.1794747     -6960.4068      40.58278     
      4800   470.89892     -9.2545128      0             -9.1936443      13795.869      39.585826    
      4900   375.56981     -9.2342617      0             -9.1857155      31856.75       38.947579    
      5000   78.781182     -9.119264       0             -9.1090807      67056.666      38.001136    
      5100   111.49056     -9.0620635      0             -9.0476522      26383.391      39.675579    
      5200   216.66751     -9.1695678      0             -9.1415614     -14743.094      41.033275    
      5300   382.0673      -9.2393746      0             -9.1899886     -29289.091      41.458089    
      5400   319.86045     -9.2240604      0             -9.1827152     -38798.686      41.954596    
      5500   76.049747     -9.1727682      0             -9.162938      -40992.936      42.224571    
      5600   385.92805     -9.1307146      0             -9.0808295     -30008.452      41.910008    
      5700   529.99489     -9.1098419      0             -9.0413347      20243.769      39.815606    
      5800   441.15368     -9.2390108      0             -9.1819872      32972.132      38.90079     
      5900   326.53851     -9.2411048      0             -9.1988964      24578.752      39.192668    
      6000   51.410535     -9.1965364      0             -9.1898911      17185.637      39.581029    
      6100   199.09768     -9.1861246      0             -9.1603892      998.50752      40.29201     
      6200   807.30928     -9.1579233      0             -9.0535704     -58931.905      43.326262    
      6300   729.3282      -9.2102129      0             -9.1159398     -49489.343      42.603478    
      6400   130.29645     -9.2270634      0             -9.2102212     -30062.788      41.50073     
      6500   14.143579     -9.2260056      0             -9.2241774     -10941.956      40.632572    
      6600   325.42398     -9.2445217      0             -9.2024574      10238.216      39.738145    
      6700   961.10994     -9.2262128      0             -9.1019795      53451.958      38.272784    
      6800   599.9529      -9.1299328      0             -9.0523828      89158.552      37.309607    
      6900   45.250595     -9.166506       0             -9.1606569      19110.064      39.602693    
      7000   133.66877     -9.2102245      0             -9.1929465     -5401.2137      40.468067    
      7100   354.77494     -9.2504695      0             -9.2046112     -18393.499      40.921858    
      7200   128.40779     -9.2318689      0             -9.2152709     -31826.717      41.564573    
      7300   6.2507643     -9.2200887      0             -9.2192807     -39251.283      41.941966    
      7400   115.59603     -9.2461098      0             -9.2311679     -25385.172      41.21416     
      7500   342.59255     -9.2487283      0             -9.2044447      3404.1742      40.001895    
      7600   153.33601     -9.1772215      0             -9.1574013      31097.778      39.121577    
      7700   113.08293     -9.1596223      0             -9.1450052      35172.068      39.019453    
      7800   441.92085     -9.233276       0             -9.1761532      14632.794      39.616468    
      7900   242.88029     -9.2561098      0             -9.2247151      805.66406      40.06975     
      8000   31.021753     -9.2442389      0             -9.2402291     -5907.6078      40.357957    
      8100   63.206086     -9.2417119      0             -9.2335418     -13964.802      40.715601    
      8200   482.07603     -9.2233914      0             -9.1610781     -36706.871      41.882392    
      8300   439.25376     -9.2034144      0             -9.1466364     -34634.418      41.853402    
      8400   172.71306     -9.1984647      0             -9.1761398      6323.5193      40.026068    
      8500   84.91974      -9.1992772      0             -9.1883005      24235.068      39.303886    
      8600   267.99148     -9.2472061      0             -9.2125655      17579.838      39.433752    
      8700   197.21624     -9.2528043      0             -9.2273121      13227.227      39.576085    
      8800   36.373969     -9.2333736      0             -9.2286719      5303.8493      39.932285    
      8900   232.50579     -9.2220615      0             -9.1920078     -9964.3199      40.636175    
      9000   778.18423     -9.2158434      0             -9.1152552     -37958.894      42.018427    
      9100   648.53181     -9.1762954      0             -9.0924661     -59186.628      43.234272    
      9200   109.28354     -9.2099618      0             -9.1958358     -25923.199      41.370273    
      9300   25.960971     -9.2391663      0             -9.2358105      1072.1174      40.084178    
      9400   134.95761     -9.2581597      0             -9.2407151      10889.906      39.642541    
      9500   112.86891     -9.2417287      0             -9.2271393      25947.645      39.11071     
      9600   3.5794517     -9.190411       0             -9.1899483      57708.18       38.107833    
      9700   331.89754     -9.2265684      0             -9.1836673      35466.073      38.832089    
      9800   920.96826     -9.257854       0             -9.1388096     -6699.2946      40.473596    
      9900   534.41026     -9.1920416      0             -9.1229636     -28165.978      41.6069      
     10000   19.335872     -9.1941769      0             -9.1916775     -26632.946      41.448223    
Loop time of 0.0344797 on 1 procs for 10000 steps with 2 atoms

Performance: 25058.186 ns/day, 0.001 hours/ns, 290025.305 timesteps/s, 580.051 katom-step/s
98.4% CPU use with 1 MPI tasks x no OpenMP threads

MPI task timing breakdown:
Section |  min time  |  avg time  |  max time  |%varavg| %total
---------------------------------------------------------------
Pair    | 0.02281    | 0.02281    | 0.02281    |   0.0 | 66.15
Neigh   | 0          | 0          | 0          |   0.0 |  0.00
Comm    | 0.0032918  | 0.0032918  | 0.0032918  |   0.0 |  9.55
Output  | 0.0010116  | 0.0010116  | 0.0010116  |   0.0 |  2.93
Modify  | 0.005887   | 0.005887   | 0.005887   |   0.0 | 17.07
Other   |            | 0.00148    |            |       |  4.29

Nlocal:              2 ave           2 max           2 min
Histogram: 1 0 0 0 0 0 0 0 0 0
Nghost:            126 ave         126 max         126 min
Histogram: 1 0 0 0 0 0 0 0 0 0
Neighs:              0 ave           0 max           0 min
Histogram: 1 0 0 0 0 0 0 0 0 0
FullNghs:           56 ave          56 max          56 min
Histogram: 1 0 0 0 0 0 0 0 0 0

Total # of neighbors = 56
Ave neighs/atom = 28
Neighbor list builds = 0
Dangerous builds = 0
write_restart md.restart
System init for write_restart ...
Total wall time: 0:00:00
