ITEM: TIMESTEP
0
ITEM: NUMBER OF ATOMS
250
ITEM: BOX BOUNDS xy xz yz pp pp pp
0.0000000000000000e+00 1.7999619200000001e+02 4.4999048999999999e+01
0.0000000000000000e+00 1.0392085000000000e+02 4.4999048999999999e+01
0.0000000000000000e+00 7.3483136999999999e+01 2.5980211000000001e+01
ITEM: ATOMS id element x y z vx vy vz fx fy fz
1 Si 42.1468 44.1829 30.0293 -4.47992 4.70427 -5.99321 0.755349 -0.378815 0.994986
2 Si 79.0786 17.4743 7.81479 -2.07072 0.331127 2.72244 0.795961 -0.465734 -0.704454
3 Si 66.1438 53.3288 71.6072 -8.50821 1.43878 -0.28837 1.84928 -0.591053 -0.272094
4 Si 59.8873 78.1337 27.1834 4.88969 -4.28825 -4.14273 0.883587 1.39562 1.66657
5 Si 66.0497 47.9599 24.8476 -2.77164 -5.25504 6.82683 -0.199069 0.440021 0.0666727
6 Si 46.645 22.9688 33.9465 1.32017 -1.76792 1.48746 -0.441944 -0.921241 1.00618
7 Si 48.6595 22.1181 34.7067 -5.16844 0.588632 -0.0736448 0.843638 0.836442 -0.77662
8 Si 144.992 87.3324 55.8616 6.03808 -12.5873 -8.06756 1.52121 -0.013184 0.719639
9 Si 128.499 64.2314 68.0057 8.34694 3.17933 -8.24059 -0.553745 -1.58809 -0.209516
10 Si 61.8968 18.8833 13.7259 7.02437 -7.52744 -3.61704 -0.0149698 -0.924216 -0.434341
11 Si 136.976 74.9901 16.1009 6.92014 -6.36009 -2.89357 1.24891 -0.973158 1.17133
12 Si 104.159 72.6486 68.7387 -0.546258 -5.80542 0.550733 1.78356 -0.723227 -1.36787
13 Si 163.369 99.9832 72.9753 -10.6569 -1.33298 -0.314358 -0.226634 -1.50254 0.829828
14 Si 136.394 73.7752 18.1056 1.54945 10.5052 -3.32896 -1.55056 0.613419 -1.76451
15 Si 87.4131 65.8995 28.5102 1.10164 -6.78537 -4.6835 0.668006 -0.183605 -1.80009
16 Si 105.433 87.3402 61.7938 8.85126 9.37152 -2.1795 0.698941 -1.21063 -0.621804
17 Si 60.9641 15.4015 41.3518 3.30813 -2.43821 -6.65383 1.47228 0.0285066 1.3817
18 Si 61.2685 76.6376 30.2845 8.1371 0.355168 -8.68901 0.407297 1.22509 0.526332
19 Si 88.8652 65.4749 31.2381 -5.05202 0.741878 -4.00701 0.671479 1.21432 2.27263
20 Si 143.645 85.891 57.1184 4.74645 4.57887 1.04289 -1.46607 -0.167953 -0.29625
21 Si 43.743 41.8858 29.4703 -12.8325 -7.62823 0.144213 0.893995 2.16187 0.727937
22 Si 62.9267 17.3463 43.036 5.20443 2.29318 2.14307 1.6169 1.16407 0.098258
23 Si 63.8265 54.5083 69.6481 2.5761 9.01909 0.981956 -1.14986 1.81265 -1.66135
24 Si 166.918 99.25 70.2053 6.90301 -4.11722 -7.48883 0.248797 -0.540335 -2.3583
25 Si 99.7093 79.1033 65.9816 -2.67229 -9.32277 10.3631 2.06302 -1.21859 -1.13417
26 Si 98.0922 82.4377 65.2233 4.65476 0.596301 -3.93977 -0.079806 -0.915157 0.417851
27 Si 85.547 47.0102 69.0986 -0.730654 0.424442 -4.41459 -0.981642 -0.843383 -0.945068
28 Si 145.729 85.1434 56.9345 8.33688 5.11038 -0.776083 2.85285 -0.139161 2.92269
29 Si 70.0503 65.2366 31.3748 -0.932021 -5.27343 -3.547 1.56172 0.00790675 -0.496953
30 Si 58.3966 20.7659 16.8947 -8.24475 -3.66324 -6.60274 1.04523 -0.810285 0.569578
31 Si 62.6216 15.8892 21.3525 2.44865 0.958491 0.352926 -0.17814 2.31134 -0.312617
32 Si 62.4699 13.7642 20.7608 -1.32007 0.820498 7.53557 0.177913 -1.03931 -0.265633
33 Si 64.8317 46.0154 24.3835 -1.08659 -5.12856 1.54113 -0.60128 0.618095 0.879009
34 Si 161.128 100.665 73.2162 -1.48701 -2.31156 -1.43225 0.697935 0.100923 -3.25037
35 Si 121.783 38.5514 29.9708 -8.64599 6.31294 -3.53479 -1.09582 0.502925 -0.617196
36 Si 61.9383 17.6262 17.0564 -7.02629 5.27738 -7.84427 0.540077 0.781466 -0.540359
37 Si 60.6348 16.9385 20.5225 -2.88622 -4.78992 1.45235 1.24729 2.52711 -1.87427
38 Si 54.5204 25.154 23.3162 11.9598 -2.1592 2.12281 1.02331 1.92643 0.552938
39 Si 88.1842 63.1398 31.1828 -6.45102 -2.9135 -4.50851 -1.13067 -0.228618 0.472782
40 Si 106.005 78.0616 67.9633 -2.6191 3.51899 13.7738 1.55718 -0.526649 1.29815
41 Si 51.6846 66.3282 26.6727 -12.2384 -1.00224 -4.05749 -0.688862 -0.409075 -0.26729
42 Si 48.8164 29.8372 70.7342 -7.46158 -7.88943 -9.83107 -0.368562 -1.86735 -0.482192
43 Si 97.7747 79.62 66.9966 -5.86675 -6.60507 1.7207 -0.0332123 1.18868 1.95995
44 Si 50.4058 67.9006 25.5354 -2.85796 -0.676962 0.243101 -0.580694 1.40901 -0.596706
45 Si 46.6765 30.024 71.6362 3.61845 -11.325 2.09962 0.546211 -1.26909 0.496175
46 Si 137.816 72.6069 19.3292 -1.37829 -2.42319 3.61081 1.63183 -0.025673 -0.0339519
47 Si 60.8508 15.6505 13.2572 -6.99728 0.306223 1.66062 -1.56212 0.0314204 3.54488
48 Si 89.1021 54.6176 25.6838 1.64797 8.39118 5.99263 0.239234 -0.53863 0.146851
49 Si 108.296 78.854 68.103 -2.02155 0.197899 -6.98309 -0.104332 0.0561327 -1.57196
50 Si 107.635 91.7609 42.0072 0.769059 -5.85646 0.0185992 0.310027 1.51087 0.292153
51 Si 67.7794 52.563 73.2141 -3.02364 4.52306 -3.19863 0.472475 -0.192173 -1.51152
52 Si 102.737 83.448 65.7747 -5.98852 -2.12518 8.20537 -0.0302513 -1.40478 -0.678594
53 Si 147.211 64.6473 50.6768 0.732685 4.18969 11.0495 0.0293197 -1.17357 -0.703268
54 Si 80.1819 19.075 8.99832 -3.40361 0.220844 4.26861 0.167045 -0.16486 1.19746
55 Si 47.2148 20.3639 34.4947 -3.88008 -0.490527 -2.82933 -0.827152 0.834961 1.40557
56 Si 61.1881 19.5097 15.8305 3.03812 10.4821 7.4879 0.00144889 -0.911819 -1.73149
57 Si 56.5189 61.422 49.5387 -5.84054 -8.49782 3.70646 0.838688 0.877181 0.162722
58 Si 57.8919 63.3976 48.6689 -2.70532 11.852 -1.11451 -0.805876 0.0686347 -0.192577
59 Si 120.101 38.1348 26.4022 -3.31499 0.9217 7.8805 0.816842 -0.461377 -1.1914
60 Si 103.376 73.7035 66.7094 6.121 2.78286 -2.32992 0.926253 1.27095 2.10743
61 Si 103.82 72.6797 64.7997 9.30693 -0.779779 0.223797 1.46558 -1.05288 -0.780705
62 Si 86.8065 64.9085 30.5015 3.01003 1.09627 -1.92656 -1.49558 0.471673 0.67898
63 Si 48.5879 22.1908 36.9703 0.549891 -12.9492 -6.78687 0.833167 -0.039591 0.421174
64 Si 122.026 36.6826 28.6366 -7.68 1.99621 1.1157 -2.77872 -0.0506506 1.83176
65 Si 67.0484 52.1303 69.6895 1.11422 4.83633 4.03449 -0.563811 0.887457 -0.081418
66 Si 124.103 41.1868 68.8711 -7.04901 0.876992 -2.31921 -0.573027 -1.02237 -0.334761
67 Si 115.931 74.6678 1.86402 4.52058 2.40834 4.13985 0.46063 0.356994 2.99325
68 Si 106.345 71.3927 68.7101 -1.51331 0.502504 2.85839 -0.489942 1.39095 -0.84677
69 Si 66.4481 46.8393 22.8135 5.74078 -0.11748 15.3972 0.929148 1.56811 -0.166644
70 Si 56.2785 25.1935 21.8585 -5.46108 5.75926 -11.7526 1.13997 -1.46446 1.27556
71 Si 136.906 72.6196 16.0136 4.79527 10.6158 -5.32878 -0.566896 0.547258 0.393568
72 Si 67.0713 51.0063 71.6559 2.23194 3.8679 3.49636 -0.592552 0.184393 0.480202
73 Si 69.7682 62.4127 29.092 -0.196733 2.59574 -0.391448 -1.8563 0.355925 -2.61831
74 Si 122.318 38.6541 27.4926 -4.15105 -8.25035 -5.15278 -0.717407 0.102629 0.511244
75 Si 123.608 40.7793 65.5056 -7.28905 -4.17779 3.61472 0.240072 1.49153 0.105527
76 Si 61.9925 54.0695 68.0919 1.6051 3.76777 2.77699 0.0172784 -0.217525 0.864656
77 Si 62.3123 51.7197 68.3738 0.0883675 -6.06567 -0.363737 0.603183 0.558198 -0.399158
78 Si 61.0932 14.7068 22.5659 -0.817446 -2.31265 -7.92709 0.247828 -3.00951 1.77306
79 Si 50.7263 64.37 25.8663 5.07656 5.15218 -1.89778 -1.0001 1.34126 -1.19675
80 Si 99.6718 81.2643 66.6534 -8.07996 3.5853 6.70125 -1.13816 0.809931 -1.15727
81 Si 60.9061 14.8624 19.3183 8.35156 -0.0933281 -2.78345 -0.220598 -0.0216331 0.446361
82 Si 51.0904 65.1781 23.3025 4.43353 3.39076 -5.80378 1.07806 -0.638091 0.887494
83 Si 83.1052 17.2391 7.40266 -2.64236 -6.8702 3.79117 0.157837 -1.48609 -0.470598
84 Si 45.0555 45.0784 28.6672 -6.91175 1.29365 -4.60424 3.40907 -0.113497 -0.65353
85 Si 53.8657 22.4621 20.7551 -4.31155 -1.70186 -11.9513 -0.0140044 0.453709 -0.153785
86 Si 96.6258 80.5158 65.2501 3.97969 4.2292 -0.856665 -0.0779312 0.606535 -1.10728
87 Si 125.199 39.2354 65.9426 5.48994 -4.77551 0.448441 0.382459 -1.24754 0.254937
88 Si 126.154 41.311 65.8395 7.1439 -4.12498 -1.66751 -0.334989 0.243904 0.85248
89 Si 123.249 39.5076 67.3798 -1.24704 -4.83179 -5.4525 0.362185 0.0531896 0.533546
90 Si 113.719 66.9103 32.0282 3.42413 1.34465 -1.30072 0.333515 1.79643 0.458408
91 Si 125.418 39.1457 68.2711 -1.12155 2.20421 0.732292 -0.239854 1.01776 0.153642
92 Si 124.469 42.4782 66.9659 6.37688 9.52515 0.176389 0.249018 -0.434261 -0.000111012
93 Si 107.073 79.0786 70.0155 -4.8016 6.22152 11.067 -1.94106 -0.28122 0.175672
94 Si 82.5113 19.0744 8.44367 2.52115 -2.17933 -6.94368 -0.848899 1.13782 1.27328
95 Si 84.5907 44.9464 68.1928 10.121 8.51572 5.1384 2.48295 0.0885589 1.43412
96 Si 43.9404 43.2938 31.43 -5.8479 -1.12445 -11.2609 -0.520496 0.563072 -0.894947
97 Si 130.101 65.793 68.2681 -11.0895 1.49277 4.81766 2.52812 -0.0215287 0.534419
98 Si 49.1291 66.2298 26.4786 4.02183 -0.97281 5.88466 1.55851 -1.07597 -0.685945
99 Si 106.15 70.3648 66.561 -9.53686 -2.78572 -1.02395 -1.06472 1.36826 0.490569
100 Si 97.83 81.0769 63.2406 -5.9452 2.99868 5.96172 0.315879 -0.551478 0.707925
101 Si 106.014 87.2229 64.1035 -1.00665 0.821238 0.374004 2.24939 0.138796 -0.862341
102 Si 89.6925 66.2363 29.1342 3.9047 3.87301 -4.10849 -0.728798 -0.83591 0.0178211
103 Si 47.5436 36.0341 15.2508 -3.91377 -11.2266 3.17012 1.04917 -0.577097 -0.643716
104 Si 45.7687 43.2629 29.9416 -0.755179 4.34339 6.26695 1.19993 -1.88869 0.680496
105 Si 59.2097 18.2574 15.3925 -4.12133 6.75577 13.2738 -0.165391 1.8998 0.893699
106 Si 53.0071 25.9687 21.2619 -6.28459 -6.5067 3.80465 0.121592 0.747756 -0.54143
107 Si 169.18 100.269 70.1874 4.40147 8.20305 -3.10568 -0.24233 2.26234 -0.226317
108 Si 144.227 83.8607 55.802 -2.46814 -1.40145 5.58161 -0.368621 1.07081 -0.511032
109 Si 60.3522 16.3663 16.0419 -0.993867 4.57149 -5.99296 0.108977 -1.37124 -3.15406
110 Si 50.4976 35.1448 13.6661 -4.31147 7.87322 2.22083 -1.6156 2.09086 -0.458543
111 Si 45.5264 21.6581 35.6942 2.86877 1.84713 -2.64356 0.820573 0.446996 -0.518311
112 Si 46.586 23.1464 37.2121 -0.270127 -3.34759 -5.18929 -1.49701 -0.51255 0.304839
113 Si 129.342 66.1121 70.5573 5.99788 4.58492 6.89432 0.635617 -0.448583 0.94005
114 Si 60.3189 79.672 29.1717 3.12479 4.12215 -7.46457 1.53238 -1.17339 -0.378726
115 Si 106.091 92.2633 43.7521 -8.87094 -5.95081 1.12281 -0.253388 0.157797 -1.71745
116 Si 47.8777 28.0441 69.1518 6.06771 -4.76 -5.75833 0.814862 0.449895 1.96396
117 Si 45.4172 45.2133 31.0533 -2.84581 -13.1606 3.01868 -1.90607 0.176439 -0.630112
118 Si 127.656 64.3701 70.2034 -1.86851 -3.29337 5.7796 0.658562 0.931499 -0.241288
119 Si 58.0347 76.5253 29.2456 -3.84757 -4.55483 4.52755 1.36385 0.759906 1.04442
120 Si 48.4568 28.8456 72.8907 1.97634 -6.87833 -11.2735 -0.826515 -0.491568 -1.53274
121 Si 103.473 86.1607 62.5648 1.15607 6.74701 10.0539 1.03475 2.20357 -0.824482
122 Si 49.0615 65.3222 24.2772 13.9705 -6.372 0.283634 -0.310569 0.289937 0.40135
123 Si 84.4383 46.4248 65.2769 4.6521 4.06557 -9.73977 0.884489 0.359846 2.18352
124 Si 86.3808 46.0921 66.9605 1.52062 7.39991 1.56265 -2.39689 0.523054 0.0899982
125 Si 97.7059 78.3925 65.0797 2.63634 -3.40007 0.459971 -0.0661782 -0.0151067 -1.62395
126 Si 104.069 88.3522 63.2263 0.607804 -2.70958 -7.82635 -0.671043 0.296791 1.19014
127 Si 64.1213 53.3139 67.6117 -0.831238 -0.94616 6.12765 0.0825681 -0.641578 0.583777
128 Si 90.1508 53.2625 24.0522 -0.318716 -2.04452 1.88724 -0.258648 -0.879673 1.67695
129 Si 167.733 96.9052 70.2991 1.21857 0.577048 -4.05138 -0.538252 1.11198 -0.457725
130 Si 61.658 75.4708 28.0963 -7.30102 -4.10502 6.19781 -0.22843 1.18483 0.80287
131 Si 64.6095 51.4964 69.0324 0.740318 -8.16049 -1.38827 0.804079 -0.5716 -0.605518
132 Si 91.395 53.9774 25.9405 -3.19087 0.452806 0.593399 -1.1826 -0.92163 0.497619
133 Si 168.456 98.7967 71.69 3.10808 -5.19249 0.277534 0.940906 -1.70041 2.21382
134 Si 48.8454 35.5588 11.6819 8.39553 -6.2786 6.45777 -0.0129213 1.01892 1.82173
135 Si 53.0894 24.7085 19.3228 -6.05988 9.49125 1.66472 -0.457796 -0.892545 -0.882116
136 Si 59.4576 78.2569 30.8397 4.594 7.16459 -1.03889 -0.124851 -1.16206 -1.74474
137 Si 117.979 76.065 0.171325 2.21008 0.355597 4.48067 -0.640899 0.771173 1.57349
138 Si 128.027 66.3541 68.7767 -5.05815 4.15004 -2.26096 -3.0559 0.851145 -0.323943
139 Si 87.5883 63.4876 28.8628 -3.21615 -0.878372 7.728 0.805103 -0.453734 -0.901161
140 Si 55.0081 25.7206 20.0623 -2.77481 -1.11537 3.11057 0.183055 1.34328 -1.11397
141 Si 120.486 40.0821 27.3992 -1.91319 4.23847 7.37682 -0.627343 1.44921 1.4303
142 Si 68.1644 47.012 24.5748 1.48062 8.55536 -2.36512 0.564871 0.51906 -1.00701
143 Si 89.9196 63.9217 30.0818 -2.55572 1.0449 5.9429 2.16779 -0.387787 -2.54218
144 Si 117.72 73.1709 1.95431 2.46917 -3.98546 3.7408 0.604418 1.32884 -0.609395
145 Si 45.8689 28.2 70.3748 -5.6641 2.72308 -1.99028 -0.463724 0.634155 -2.00945
146 Si 63.3973 16.1608 41.1703 12.3891 10.1629 1.57883 -1.82126 -1.19951 -1.13549
147 Si 60.8167 16.6951 43.3683 2.48557 -2.80163 -2.35548 -1.20773 -1.16048 -0.42052
148 Si 139.023 73.6044 16.2905 8.24493 -0.480427 -11.7879 0.339277 -1.19977 -2.54317
149 Si 46.4425 27.5843 72.4052 4.24024 4.26987 6.20054 0.611202 0.324668 2.03426
150 Si 170.649 98.7406 69.3172 1.89936 -0.0134721 -5.9503 1.63921 2.26226 -2.07591
151 Si 82.8158 47.5574 66.6253 -6.24532 -4.44393 -7.31735 1.19408 1.08527 0.654513
152 Si 85.1549 48.1727 67.1473 -1.09943 -3.67548 1.92973 0.752407 0.208523 -2.41181
153 Si 168.573 99.2607 68.2211 10.0513 1.07699 -2.24577 -1.34862 1.09515 -0.0698386
154 Si 68.0424 64.1353 28.8027 1.91807 -4.1449 -0.702899 1.56352 -1.32394 -0.548525
155 Si 62.1211 77.8649 28.502 -4.71227 2.59501 -1.08377 -2.19386 0.0437035 -0.625726
156 Si 82.9657 45.3102 66.7916 -1.81422 2.84783 -1.37382 -1.23 -0.302183 -1.25814
157 Si 69.9852 65.4415 28.9648 -8.73545 -4.32784 -2.26496 -1.07959 -1.65535 1.81294
158 Si 109.359 76.7455 68.123 7.60014 -4.21576 1.84592 -1.48857 0.149242 0.634712
159 Si 59.4396 75.926 27.5029 0.393329 0.529913 12.2411 -0.182186 -0.84409 0.186033
160 Si 55.1619 23.6712 18.9345 -2.57509 8.67391 -2.27689 -0.119757 -0.459849 1.04787
161 Si 57.3439 21.9602 24.4341 -0.492394 -7.19098 5.22678 -1.42916 -1.18657 0.756456
162 Si 60.2926 13.0916 20.8921 9.76258 -3.66034 -8.09148 -0.36677 0.928391 0.204661
163 Si 60.6845 20.7454 17.6627 -0.52262 0.519392 7.22507 -0.97679 0.434636 1.25727
164 Si 59.9996 74.8926 29.6957 0.202004 1.98848 10.693 -1.49879 0.439036 -1.11001
165 Si 58.0993 22.4764 22.3369 1.96887 2.35654 -7.3319 1.79279 -1.05717 -1.43733
166 Si 66.6471 45.9653 25.9081 -1.34174 6.96626 2.35347 -0.319416 -1.36152 0.201398
167 Si 59.5404 19.1699 13.0722 8.84282 3.22364 8.94678 1.03727 -0.885704 0.739711
168 Si 55.2574 23.3587 24.4161 -4.99422 7.96306 -1.67957 0.797316 -1.42724 0.800482
169 Si 52.9567 23.9754 22.3398 6.75181 -5.19818 -3.23612 -2.25187 -1.69349 0.357874
170 Si 104.049 70.397 65.4028 10.4944 6.24956 2.11632 0.485086 -0.00254552 -1.6162
171 Si 62.3012 16.6834 14.7693 7.0187 1.22651 1.67533 -0.0800181 0.956838 0.799564
172 Si 83.1331 46.7098 68.8624 9.49562 13.0552 -3.46679 -0.705406 -1.11969 0.252865
173 Si 64.0801 52.7205 70.8405 -2.09959 9.36454 -0.435047 -1.03573 -2.15918 1.93784
174 Si 90.6986 51.6294 26.0839 -0.907143 -4.3583 2.29053 -0.0719535 1.69449 -0.405923
175 Si 64.3371 15.2805 43.0109 6.93426 5.89251 18.5834 -1.33086 -0.39999 1.04879
176 Si 48.4641 71.5651 17.3479 -2.69056 -2.80196 9.31991 0.148536 0.274335 0.424316
177 Si 145.901 85.3216 54.7389 -2.92727 2.05802 0.680825 -0.303689 0.218684 -1.17262
178 Si 88.5166 52.2823 25.6449 0.413812 -4.87264 6.73807 0.487795 0.821515 -0.2583
179 Si 81.0385 17.1699 6.37589 0.0467334 1.74328 0.923422 -1.21838 0.342126 0.57666
180 Si 114.969 68.6737 34.6842 -7.09034 1.25241 0.251818 -0.639388 -0.152098 -0.668869
181 Si 69.3608 62.8839 31.2207 -5.94632 6.20372 0.790086 -0.502912 2.02109 0.856995
182 Si 145.62 63.5516 49.2371 2.46532 3.74479 1.59747 -0.0235519 0.251747 0.741523
183 Si 138.511 74.7126 18.06 1.67268 -0.0103435 -8.23994 -1.2511 0.763592 2.35242
184 Si 56.2825 21.0466 22.5441 4.36027 6.71411 -1.64769 -1.04408 -0.123975 0.231288
185 Si 47.7971 38.0865 14.0504 7.43419 2.78987 -10.2864 1.5635 -0.658823 -0.0813127
186 Si 59.3347 15.2612 21.1653 -0.716153 -2.46242 1.3242 -1.04057 -1.26326 -0.0458628
187 Si 113.017 67.256 34.2529 1.50571 10.0177 -3.93891 1.39103 0.200528 -0.314128
188 Si 119.79 37.2827 30.4418 -0.967806 -4.27223 6.54461 2.9306 0.932179 -3.24512
189 Si 56.2094 22.913 21.0611 -10.2179 -12.9537 0.543926 -0.923032 0.976112 -0.736717
190 Si 119.534 39.6761 29.6518 -9.7732 2.1296 -3.21825 2.23794 -0.720911 1.30185
191 Si 43.3078 46.1095 29.4656 -2.69699 -9.06045 -10.5157 -1.16159 0.213243 1.70804
192 Si 107.575 93.6937 44.6651 9.51449 -5.12621 -5.13978 1.21402 -0.101265 0.45255
193 Si 105.762 72.817 66.6912 -0.484832 -4.61659 1.22823 -0.332254 -0.159445 0.505132
194 Si 69.0884 51.9449 71.0025 -0.732677 11.2172 -5.51878 -1.1079 0.282663 1.05878
195 Si 108.23 75.912 70.0689 8.36575 -1.24091 -9.54528 -0.0849037 0.415775 -0.666506
196 Si 102.422 81.3532 64.3232 1.92898 5.74553 -1.22361 -1.43189 2.58356 1.65395
197 Si 129.971 63.9563 69.8954 -3.67423 -0.226779 1.55736 -0.21266 0.275554 -0.699723
198 Si 119.732 36.7071 28.1066 4.81032 -0.248526 12.727 -0.741052 -0.447303 1.40425
199 Si 107.053 75.8897 67.9069 2.61034 -4.04995 -10.8967 0.540875 1.2625 1.5412
200 Si 126.31 41.356 68.2914 5.41941 -2.36785 -5.3888 -0.0858647 -0.102214 -1.56526
201 Si 146.062 62.72 51.5027 -3.64065 1.83991 -4.58026 0.544808 0.210548 -1.13074
202 Si 67.9293 64.8207 30.9362 -2.6349 9.45148 -19.3053 -0.628468 -0.413968 0.141441
203 Si 71.2562 63.7745 29.9821 1.78951 -10.8562 -2.34787 0.942034 1.00834 0.852414
204 Si 80.8362 19.4782 6.89497 -2.17499 -10.5471 13.2392 0.433679 -0.196451 -1.30074
205 Si 58.9622 20.2659 19.2481 7.76825 -0.469888 2.07539 -0.601421 0.998818 -0.980632
206 Si 47.1205 20.4301 36.9281 -0.446666 -3.05957 -0.633113 -0.27307 0.191725 -1.10952
207 Si 58.3454 62.5019 50.6792 0.745124 -12.8003 6.21733 -0.583388 -0.234539 1.12234
208 Si 52.189 66.9416 24.4313 -6.92508 7.15039 -1.27144 0.761579 -0.497162 -0.279799
209 Si 57.5379 24.0946 23.7452 3.771 4.96032 -8.2388 -1.18117 2.72675 0.219103
210 Si 60.2594 18.4829 18.5912 -2.2125 0.668464 -0.286416 1.50267 -1.57125 1.40668
211 Si 118.448 38.8489 27.9455 -5.33605 -6.52103 0.213929 -0.0250504 -1.3067 -1.42568
212 Si 50.2672 67.3138 23.1143 3.51555 3.48918 -4.8008 -0.817919 -0.419908 1.73765
213 Si 67.8059 44.7832 24.0813 5.9186 2.06596 -5.17378 -0.563092 0.444979 0.563509
214 Si 48.3519 34.2542 13.5514 -2.26323 -0.605358 -0.795924 -0.746202 1.49957 0.813758
215 Si 49.7463 36.9814 15.2192 1.43303 0.503355 3.21163 -0.934554 -0.5466 -2.47422
216 Si 58.1408 18.6192 17.7749 -5.40348 11.7906 1.95295 -1.02397 -0.349942 -1.03337
217 Si 58.212 78.9595 28.8464 -3.99543 -1.44604 0.0109021 0.0410033 -1.86865 -0.367021
218 Si 61.8065 53.026 70.2369 -3.8867 -7.08981 7.46083 0.620995 0.64775 -0.394206
219 Si 46.8032 36.2557 13.0472 1.5254 -0.205797 -2.78134 1.16417 -1.15458 -0.799018
220 Si 113.274 69.3032 33.1102 -3.00631 1.64648 -1.33386 1.27126 -1.34209 -0.457877
221 Si 53.6104 21.9262 23.2137 0.792911 8.6272 -0.283116 2.36285 0.131259 -0.376227
222 Si 103.721 70.64 67.5942 -1.8347 -4.65396 2.00593 -0.586016 -1.89687 2.68576
223 Si 65.8416 44.6927 22.8745 -1.54727 3.99703 6.43601 0.188838 -2.22874 -0.536934
224 Si 81.1361 16.8262 8.81322 7.66254 -0.575694 5.36195 0.512762 0.833193 -0.571606
225 Si 100.037 81.7039 64.0473 3.46742 3.05884 -1.44455 0.417512 -0.342199 0.751416
226 Si 103.052 83.3214 63.4465 -1.94143 1.96985 -0.22613 0.304727 -1.32351 -0.0240548
227 Si 105.822 85.1376 62.7124 9.32926 -6.92278 -2.60233 -1.38107 1.05486 0.840778
228 Si 89.6137 53.2375 27.5718 -2.81488 -0.816715 -3.61548 0.786172 -0.176075 -1.6572
229 Si 119.479 74.7156 1.48802 -1.06792 2.94498 -5.65982 0.375194 -0.628544 -1.02884
230 Si 169.233 97.1461 68.4198 1.5799 -6.39406 7.13323 -0.474394 -1.676 0.59214
231 Si 104.052 86.6193 64.8917 -0.675087 1.47911 -0.198338 -1.96422 -1.20161 0.258637
232 Si 104.772 84.2538 64.8139 -1.49965 -7.63893 -2.0774 -0.0447428 1.03184 -0.795658
233 Si 169.972 97.2716 70.7071 -3.74402 -1.35672 13.1736 -0.225309 -2.81498 2.38213
234 Si 101.002 83.9842 64.3284 -1.11876 -0.070012 -7.1443 0.900132 -2.69759 -0.193019
235 Si 117.899 75.5637 2.79935 1.66446 -1.3873 3.00901 -1.27064 -0.426848 -0.507968
236 Si 43.3455 43.7788 28.1566 -0.985941 -4.66324 10.1409 -2.67019 -0.733624 -1.93287
237 Si 99.463 79.2845 63.5573 6.48051 -4.45445 -5.88613 -1.06584 0.966097 1.24198
238 Si 143.657 85.9733 54.7364 -1.61835 -0.0543216 0.963075 -2.23568 -0.969201 -1.66243
239 Si 49.6862 37.61 12.6066 0.993813 -4.5863 -1.60642 -0.467573 -1.67225 1.82132
240 Si 58.8435 16.9726 12.8463 -0.0249497 -1.38075 2.3794 1.32348 -0.512421 -0.0310462
241 Si 47.2547 26.253 70.6368 0.260998 -1.2482 4.50634 0.751891 1.08018 0.178612
242 Si 47.6808 24.257 35.5907 -5.39581 0.262991 -0.198023 0.541794 -0.836742 -0.733318
243 Si 106.116 76.9025 70.1196 -4.62953 0.412802 3.53955 0.434632 0.253599 -1.47205
244 Si 115.575 68.6973 32.3499 -6.29724 1.7915 6.82648 -1.85637 -1.04585 0.856388
245 Si 89.2534 64.5997 27.4546 -12.8031 -1.30442 -5.43193 -0.957332 0.403659 1.80122
246 Si 102.323 71.7515 66.3157 1.12538 -8.66265 -12.7232 -2.18755 -0.195183 -1.17734
247 Si 109.109 78.1276 70.154 -6.60697 3.44474 7.23161 1.08617 -1.32938 0.0607887
248 Si 61.0185 17.5006 12.011 -3.47887 10.6958 2.23092 -1.00143 1.80079 -1.23177
249 Si 115.372 66.6205 33.6054 8.33312 0.892219 0.685838 -0.500042 0.543084 0.126078
250 Si 49.3362 27.4083 71.1209 2.12306 -4.63135 -5.37831 -1.06536 1.1391 -0.64863
ITEM: TIMESTEP
100
ITEM: NUMBER OF ATOMS
250
ITEM: BOX BOUNDS xy xz yz pp pp pp
-4.1241719069556043e-01 1.8123344360874668e+02 4.5411466209025583e+01
-3.5716377923954890e-01 1.0451612294706905e+02 4.5411466209025583e+01
-3.3673723051324311e-01 7.3819874230513378e+01 2.6218320167829656e+01
ITEM: ATOMS id element x y z vx vy vz fx fy fz
1 Si 41.8131 43.8213 29.8441 -3.76023 10.0071 -3.58082 -0.0499848 0.651026 -1.02882
2 Si 79.5882 17.1775 8.06784 -1.20766 -7.60022 9.44085 -0.442113 0.872553 -0.0262554
3 Si 66.2032 53.9866 72.0324 -6.95772 11.7578 -5.65266 -0.55904 -1.1438 -0.419945
4 Si 59.8966 77.9936 26.9814 -1.16571 -3.7061 8.80359 -1.62087 0.248507 -0.882536
5 Si 66.0291 48.0661 25.2295 -4.09526 1.50632 5.54829 1.39011 -0.626318 0.438801
6 Si 46.3272 22.616 33.9391 -1.19873 3.98407 4.88295 1.33785 -0.239914 -0.778201
7 Si 48.8871 21.8235 34.2611 -3.77676 -6.00258 -5.59068 -1.49063 0.191042 0.279321
8 Si 146.399 87.5595 55.4591 -3.62887 -1.72932 -11.3784 -0.254841 -0.481091 0.897684
9 Si 129.126 64.6817 68.4335 -6.62338 0.566268 -1.10258 0.00192735 0.883356 -0.649526
10 Si 62.0677 18.717 13.6024 4.3937 2.86768 0.183615 -0.093736 1.56421 -0.304492
11 Si 138.651 75.3225 15.6102 1.48027 -1.45113 -7.88982 1.29534 -0.503888 -0.0872035
12 Si 104.593 72.4053 68.8527 -1.44997 -1.73343 -8.99405 -3.05702 1.74399 0.826462
13 Si 163.901 99.9453 73.7148 -7.05149 -10.8765 2.80149 -0.247965 -2.8957 -1.07674
14 Si 137.342 74.7672 17.331 2.09627 10.0271 3.36814 -0.326645 -0.610849 0.0790232
15 Si 87.5593 65.7582 28.0153 0.42372 -6.69323 -8.85887 -0.246361 1.16471 0.681897
16 Si 106.408 87.9381 62.0603 6.55361 -3.74066 7.26677 0.998084 -0.866577 0.611043
17 Si 61.7071 15.3199 41.3204 10.5488 7.39838 -1.2857 0.283385 -0.266828 -1.0458
18 Si 61.6955 77.3455 30.3658 -5.90376 7.6832 -6.26786 -0.539723 0.600031 -0.568883
19 Si 89.1847 65.9411 30.9924 -3.92269 0.807859 -6.59663 -1.03219 -1.90817 -0.0653314
20 Si 145.019 86.8307 57.2757 9.52205 2.25534 6.13837 0.426191 -0.262964 0.411201
21 Si 42.8822 41.8858 29.2525 -7.15973 -14.1476 -3.04778 1.42419 1.66123 -0.00159179
22 Si 63.5474 17.0329 43.5639 1.34859 -0.359856 -3.18365 -0.650965 -0.556824 -0.572507
23 Si 63.5848 54.5977 70.2148 -10.1607 5.08394 9.47985 1.00008 -0.505203 0.868808
24 Si 168.605 99.6842 69.7793 10.6762 -6.95309 -3.30186 -0.253891 0.628748 0.624854
25 Si 100.158 79.2453 66.4936 -9.72817 -3.50116 2.2499 -0.683099 0.37457 -0.485345
26 Si 98.4384 82.5968 65.7494 -0.607299 7.09822 8.2573 0.0682566 1.40473 -1.71252
27 Si 86.2011 47.7142 68.9738 6.89315 5.11454 4.40429 -0.364732 -0.416134 -0.80806
28 Si 147.035 85.698 56.9806 5.49721 1.05649 -2.66299 1.1665 0.535188 1.07206
29 Si 70.1319 65.5437 31.1222 -4.92219 1.83322 2.48923 0.464309 -1.03281 -0.131032
30 Si 58.6846 20.9798 17.02 1.38176 -0.368112 2.80962 0.691271 -0.744139 0.421418
31 Si 62.4519 15.7146 21.4893 -1.69256 1.19802 -1.59131 0.864709 -0.399658 -0.596166
32 Si 63.0937 13.4452 20.5764 7.52728 1.56176 0.63901 0.288684 1.98297 0.887345
33 Si 65.0338 46.0289 24.7559 1.89009 -1.59408 6.76995 1.04613 -0.552197 -0.0920074
34 Si 162.237 101.343 73.4163 3.13819 2.71149 6.7629 -1.07483 1.30006 1.28342
35 Si 122.287 39.0301 30.2092 -17.8614 -6.78507 4.45212 -0.0109732 -1.54141 -1.4841
36 Si 61.8511 17.5373 16.7076 -8.10479 -0.385154 5.01438 0.138709 -0.0204188 0.795419
37 Si 60.575 16.8368 20.5348 0.662365 -1.16824 2.7422 -0.0779682 -1.54417 0.2916
38 Si 54.4569 25.2121 22.996 1.50783 5.68463 8.29157 -0.257374 -0.116399 -1.74277
39 Si 88.3394 63.5841 31.1856 -3.2122 -0.323729 -2.09102 0.133647 1.61606 -0.869601
40 Si 106.673 78.5853 68.5187 -8.85155 5.00922 2.61546 -0.13252 -1.404 -0.028293
41 Si 51.7374 66.8101 26.4189 5.64376 2.16022 1.55337 -0.389991 1.33975 -0.597475
42 Si 48.7651 29.1442 70.3066 0.336159 -0.316318 -16.149 -0.337051 0.0129499 0.579371
43 Si 98.0788 80.0287 67.3249 1.31596 4.20694 -3.35617 0.330336 -0.914854 -0.469421
44 Si 50.1452 68.2417 25.373 0.905197 -1.09401 -5.77269 -0.87273 -0.632211 -0.242398
45 Si 46.9098 29.4625 71.7475 -0.335228 6.27771 -5.14551 0.498054 -0.58887 -0.119289
46 Si 138.311 73.4232 18.9028 -5.61362 7.40473 -7.73322 0.273843 1.40214 0.435078
47 Si 61.0058 15.4413 13.2214 -1.94885 -4.84033 3.61323 -0.400143 1.30552 -0.745078
48 Si 89.4661 54.7835 25.7749 -4.38693 8.46467 2.7333 0.135091 -1.57301 0.348294
49 Si 108.661 79.7696 68.7504 -6.58919 -7.55427 10.7192 1.06879 -1.25657 -0.274044
50 Si 109.238 92.2938 42.1895 9.03891 10.6973 -3.21506 0.0172393 0.543709 0.504177
51 Si 68.1645 53.3273 73.2463 7.64938 6.48889 -4.22424 0.455354 0.336267 -0.642455
52 Si 103.142 83.9929 65.8382 -6.12357 -3.41282 -4.47937 -0.499433 0.395208 0.938134
53 Si 148.09 64.593 51.4305 1.33044 -1.40268 4.24567 1.84292 0.136217 0.150742
54 Si 80.7777 18.8247 9.33877 5.78651 -7.56755 -4.74631 0.226123 -1.32613 -0.553852
55 Si 47.0558 20.3262 34.1756 -3.71185 -6.0488 -2.20406 -0.214114 1.13791 -0.780663
56 Si 61.7726 19.649 15.8209 1.51547 -0.421867 9.51123 -0.700424 0.516758 0.577905
57 Si 56.3916 61.9576 49.5261 4.96407 2.45366 -2.07024 -0.160057 0.149379 -0.118584
58 Si 57.9634 63.6406 49.219 -7.78213 -5.04851 6.19417 0.18311 0.927224 -0.0431776
59 Si 120.465 37.6625 26.548 -7.17021 -4.69741 -2.19571 -0.361136 1.60717 -1.53573
60 Si 104.347 73.8439 67.0896 12.2493 -5.79392 1.76115 -1.58581 -0.381237 -1.53285
61 Si 105.374 72.6728 65.0691 -1.27922 -0.534646 -0.649769 -1.13951 0.704517 0.0830301
62 Si 86.8712 65.3822 30.4205 4.62427 -1.23043 0.598534 1.77786 0.00447729 -0.652132
63 Si 48.8111 21.641 36.5515 -3.75198 -1.32078 -4.94061 -0.847599 -0.391874 0.411339
64 Si 122.203 36.8585 28.9863 10.4943 6.45075 3.29909 0.139955 0.209211 2.24579
65 Si 66.9043 52.961 70.0099 -6.00642 10.0263 5.985 -0.368193 -0.216077 0.635421
66 Si 124.88 41.1483 68.9894 2.94035 4.84233 1.37258 -0.399125 1.08231 0.667346
67 Si 116.91 75.0524 1.83468 6.78377 -1.0175 4.50028 -0.666848 0.456469 -1.12386
68 Si 106.681 71.8591 69.2416 -6.39607 -11.8629 9.0206 1.6334 -0.951434 0.246337
69 Si 66.51 47.078 23.1484 0.425678 5.20297 5.07432 0.564877 -0.0658539 -1.33032
70 Si 56.2481 25.0507 21.3642 2.23635 -2.7779 -0.25952 -0.871125 -1.11513 0.836171
71 Si 137.867 73.0463 15.6872 13.8612 1.34896 2.17069 0.251872 0.328529 1.28366
72 Si 67.0913 51.7396 72.0521 -5.74969 -3.64859 1.65249 0.0894423 0.302898 -1.04492
73 Si 69.6987 62.3129 28.8452 7.50229 -12.7398 -1.79331 -0.338766 0.137374 0.415579
74 Si 122.401 38.7532 27.6873 1.56348 -5.79194 -4.3094 -0.284576 -0.0934727 0.315852
75 Si 124.652 40.6891 65.5421 2.52591 -4.79388 2.95324 1.04734 0.529446 0.0847907
76 Si 62.1802 54.0624 68.484 1.00269 -4.23018 -1.6724 -1.58187 0.887103 -0.640201
77 Si 62.6956 51.8308 68.6979 -2.18037 -6.92067 -0.64158 0.283486 -1.25334 -0.919899
78 Si 61.2489 13.8883 22.3145 -0.721165 -3.92621 -1.9872 0.395081 -0.0327037 -0.510206
79 Si 51.2032 64.8365 25.5224 3.48832 -4.36899 -0.379777 -0.151552 -0.678036 -2.07221
80 Si 100.097 81.6277 67.0452 -2.95122 -1.85153 9.65776 -1.01415 -1.61145 1.55344
81 Si 61.668 15.0086 19.2593 0.339369 7.78343 7.96357 -0.577252 -0.46073 1.19176
82 Si 51.7116 65.8722 23.2866 -0.720124 4.91904 -2.96611 -0.0544102 -1.18686 1.09327
83 Si 83.3656 16.6804 7.32265 -3.32569 -1.67728 2.63522 -0.552043 -0.399278 -0.331059
84 Si 45.0539 44.4753 28.3641 -10.5526 0.155603 4.95461 -0.324059 0.145083 1.45453
85 Si 53.3797 22.723 19.8374 9.45364 2.33775 -8.00443 -0.145115 0.753154 0.0827208
86 Si 97.0185 80.7798 65.1471 -1.49222 -8.45267 -2.91144 0.370552 -0.0786262 1.11339
87 Si 126.059 38.8605 66.335 3.35497 2.37771 -0.298488 -0.611199 1.11018 -0.149477
88 Si 126.984 41.0565 66.0373 -0.152218 -2.83628 10.3709 -0.25055 -0.918497 -1.74434
89 Si 124.025 39.7226 67.4829 -0.188121 2.72503 -2.46635 -1.24488 -3.87951 0.272001
90 Si 114.685 67.5679 31.8776 7.41032 1.16169 1.68589 -0.500425 0.312513 0.870299
91 Si 126.105 39.1877 68.6238 -3.25618 -2.41565 -6.40932 -0.136021 -0.187413 -0.089325
92 Si 125.366 42.4078 67.0607 -1.78759 -3.91373 -9.45331 0.486543 2.08239 -0.608302
93 Si 107.502 79.0621 70.6176 2.09387 9.4853 1.36862 -0.125389 -0.271831 1.30313
94 Si 82.8323 18.7019 8.21227 2.63517 3.03974 4.45363 -0.0205047 0.14176 0.635016
95 Si 85.4658 45.4951 68.764 0.748486 11.5024 -1.52445 -0.973979 0.431907 -1.52831
96 Si 43.3117 43.2506 31.4931 -9.8957 -1.68771 -1.62381 -0.624199 -0.00345475 -0.0920202
97 Si 130.797 66.3971 68.8298 1.15016 1.16287 0.257111 -0.0108107 -0.382778 0.337913
98 Si 49.322 66.0626 26.0131 -11.2808 -2.60975 2.27635 0.446825 0.885314 -0.233714
99 Si 106.444 70.5766 67.2197 9.94609 -0.549376 8.24414 0.252678 -1.44567 -0.918207
100 Si 98.6115 81.4506 63.5823 5.04995 -4.06665 4.2396 -0.109537 0.717612 0.386543
101 Si 106.84 87.317 64.6369 0.514533 -5.90762 -1.20361 0.0514818 2.53632 -1.5119
102 Si 89.6475 66.508 28.8084 0.320746 1.57352 -5.78524 -0.0319249 -1.27264 -0.656934