ITEM: TIMESTEP
0
ITEM: NUMBER OF ATOMS
2
ITEM: BOX BOUNDS xy xz yz pp pp pp
0.0000000000000000e+00 7.6475840000000002e+00 1.9118960000000000e+00
0.0000000000000000e+00 4.4153349999999998e+00 1.9118960000000000e+00
0.0000000000000000e+00 3.1221130000000001e+00 1.1038340000000000e+00
ITEM: ATOMS id element x y z vx vy vz fx fy fz
1 Si 1.95085 1.12243 0.770909 -2.9878 1.75178 1.15161 -0.588697 0.0591586 0.840773
2 Si 3.8301 0.020605 0.046577 2.9878 -1.75178 -1.15161 0.588697 -0.0591586 -0.840773
ITEM: TIMESTEP
100
ITEM: NUMBER OF ATOMS
2
ITEM: BOX BOUNDS xy xz yz pp pp pp
1.3589737808004370e-03 7.6435070786576018e+00 1.9105370262191999e+00
1.1769058134153034e-03 4.4133734900740436e+00 1.9105370262191999e+00
1.1095974121229930e-03 3.1210034025878759e+00 1.1030493958874565e+00
ITEM: ATOMS id element x y z vx vy vz fx fy fz
1 Si 1.93739 1.11741 0.809571 3.37667 -1.18671 -3.27854 -0.0950019 0.202032 -0.34141
2 Si 3.84217 0.0271679 0.00955285 -3.37667 1.18671 3.27854 0.0950019 -0.202032 0.34141
ITEM: TIMESTEP
200
ITEM: NUMBER OF ATOMS
2
ITEM: BOX BOUNDS xy xz yz pp pp pp
-7.9878665186993731e-03 7.6715475995561064e+00 1.9198838665186999e+00
-6.9176953046997296e-03 4.4268644935671597e+00 1.9198838665186999e+00
-6.5220655046869533e-03 3.1286350655046857e+00 1.1084457982624591e+00
ITEM: ATOMS id element x y z vx vy vz fx fy fz
1 Si 1.90082 1.13673 0.811346 -2.02646 0.0888977 3.74063 0.919862 -0.389753 -0.436913
2 Si 3.88831 -0.0027588 -0.00348865 2.02646 -0.0888977 -3.74063 -0.919862 0.389753 0.436913
ITEM: TIMESTEP
300
ITEM: NUMBER OF ATOMS
2
ITEM: BOX BOUNDS xy xz yz pp pp pp
-4.7370618638597442e-02 7.7896958559158014e+00 1.9592666186385979e+00
-4.1024159000370271e-02 4.4837086065928737e+00 1.9592666186385979e+00
-3.8677946988123067e-02 3.1607909469881208e+00 1.1311834475925038e+00
ITEM: ATOMS id element x y z vx vy vz fx fy fz
1 Si 1.97885 1.09866 0.728055 0.252442 0.460095 -2.54077 -1.39114 0.474884 1.17564
2 Si 3.8506 -0.00935113 0.0323297 -0.252442 -0.460095 2.54077 1.39114 -0.474884 -1.17564
ITEM: TIMESTEP
400
ITEM: NUMBER OF ATOMS
2
ITEM: BOX BOUNDS xy xz yz pp pp pp
-4.7963558755950798e-02 7.7914746762678613e+00 1.9598595587559513e+00
-4.1537660203248172e-02 4.4845644420343813e+00 1.9598595587559513e+00
-3.9162080552033345e-02 3.1612750805520302e+00 1.1315257818311339e+00
ITEM: ATOMS id element x y z vx vy vz fx fy fz
1 Si 1.89849 1.11982 0.831495 1.9824 -0.565479 0.22117 0.718016 -0.127976 -1.50621
2 Si 3.93156 -0.031181 -0.0718248 -1.9824 0.565479 -0.22117 -0.718016 0.127976 1.50621
ITEM: TIMESTEP
500
ITEM: NUMBER OF ATOMS
2
ITEM: BOX BOUNDS xy xz yz pp pp pp
-2.7232065773065903e-02 7.7292801973192118e+00 1.9391280657730665e+00
-2.3583660680181074e-02 4.4546411058814614e+00 1.9391280657730665e+00
-2.2234887924593185e-02 3.1443478879245905e+00 1.1195564452012814e+00
ITEM: ATOMS id element x y z vx vy vz fx fy fz
1 Si 1.9379 1.11605 0.759887 -2.42173 0.616863 2.27043 -0.0977153 -0.00555718 0.743971
2 Si 3.87093 -0.00389915 0.0247733 2.42173 -0.616863 -2.27043 0.0977153 0.00555718 -0.743971
ITEM: TIMESTEP
600
ITEM: NUMBER OF ATOMS
2
ITEM: BOX BOUNDS xy xz yz pp pp pp
-1.3323609418419650e-02 7.6875548282552728e+00 1.9252196094184200e+00
-1.1538584188869935e-02 4.4345659759710436e+00 1.9252196094184200e+00
-1.0878681207604423e-02 3.1329916812075993e+00 1.1115263917821756e+00
ITEM: ATOMS id element x y z vx vy vz fx fy fz
1 Si 1.94684 1.11726 0.79075 1.58695 -0.429643 -3.33862 -0.387746 0.0887931 0.099454
2 Si 3.84775 0.0106624 0.0106751 -1.58695 0.429643 3.33862 0.387746 -0.0887931 -0.099454
ITEM: TIMESTEP
700
ITEM: NUMBER OF ATOMS
2
ITEM: BOX BOUNDS xy xz yz pp pp pp
-8.4273073291441462e-03 7.6728659219874453e+00 1.9203233073291439e+00
-7.2982622087681562e-03 4.4274987718172207e+00 1.9203233073291439e+00
-6.8808674131184879e-03 3.1289938674131097e+00 1.1086995096084531e+00
ITEM: ATOMS id element x y z vx vy vz fx fy fz
1 Si 1.91231 1.127 0.823085 0.279156 0.00224201 2.52492 0.611195 -0.132048 -0.917467
2 Si 3.87727 0.00647231 -0.0157577 -0.279156 -0.00224201 -2.52492 -0.611195 0.132048 0.917467
ITEM: TIMESTEP
800
ITEM: NUMBER OF ATOMS
2
ITEM: BOX BOUNDS xy xz yz pp pp pp
-1.1008308208407397e-02 7.6806089246252354e+00 1.9229043082084070e+00
-9.5334745301185828e-03 4.4312241261361285e+00 1.9229043082084070e+00
-8.9882457428405050e-03 3.1311012457428284e+00 1.1101896516060104e+00
ITEM: ATOMS id element x y z vx vy vz fx fy fz
1 Si 1.94824 1.11672 0.737393 -2.6502 0.591791 0.301683 -0.504672 0.148108 1.39604
2 Si 3.84398 0.0138297 0.0668238 2.6502 -0.591791 -0.301683 0.504672 -0.148108 -1.39604
ITEM: TIMESTEP
900
ITEM: NUMBER OF ATOMS
2
ITEM: BOX BOUNDS xy xz yz pp pp pp
-2.4270750480091894e-02 7.7203962514402882e+00 1.9361667504800912e+00
-2.1019086416206371e-02 4.4503668149252089e+00 1.9361667504800912e+00
-1.9816984185773694e-02 3.1419299841857611e+00 1.1178467285090028e+00
ITEM: ATOMS id element x y z vx vy vz fx fy fz
1 Si 1.93731 1.12314 0.856448 3.29922 -0.767607 -4.37249 -0.05059 -0.138518 -2.36396
2 Si 3.86849 -0.0076278 -0.0682184 -3.29922 0.767607 4.37249 0.05059 0.138518 2.36396
ITEM: TIMESTEP
1000
ITEM: NUMBER OF ATOMS
2
ITEM: BOX BOUNDS xy xz yz pp pp pp
-2.7786161411048532e-02 7.7309424842331573e+00 1.9396821614110480e+00
-2.4063521577235888e-02 4.4554408741398337e+00 1.9396821614110480e+00
-2.2687305104873979e-02 3.1448003051048588e+00 1.1198763525625917e+00
ITEM: ATOMS id element x y z vx vy vz fx fy fz
1 Si 1.91776 1.11759 0.752189 -0.850491 0.351804 3.51401 0.550017 -0.0393797 0.916584
2 Si 3.89163 -0.00607454 0.031803 0.850491 -0.351804 -3.51401 -0.550017 0.0393797 -0.916584
ITEM: TIMESTEP
1100
ITEM: NUMBER OF ATOMS
2
ITEM: BOX BOUNDS xy xz yz pp pp pp
-1.6855484110483109e-02 7.6981504523314559e+00 1.9287514841104816e+00
-1.4597277385213141e-02 4.4396637985807352e+00 1.9287514841104816e+00
-1.3762444730956053e-02 3.1358754447309423e+00 1.1135655211955129e+00
ITEM: ATOMS id element x y z vx vy vz fx fy fz
1 Si 1.94958 1.11621 0.785168 -0.770072 -0.0420346 -3.778 -0.473174 0.0961907 0.225344
2 Si 3.84863 0.00770342 0.0120004 0.770072 0.0420346 3.778 0.473174 -0.0961907 -0.225344
ITEM: TIMESTEP
1200
ITEM: NUMBER OF ATOMS
2
ITEM: BOX BOUNDS xy xz yz pp pp pp
6.9641312399353044e-03 7.6266916062802057e+00 1.9049318687600634e+00
6.0311145494248396e-03 4.4052831412034639e+00 1.9049318687600634e+00
5.6861891750056509e-03 3.1164268108249815e+00 1.0998132557528786e+00
ITEM: ATOMS id element x y z vx vy vz fx fy fz
1 Si 1.93322 1.12769 0.831789 1.76667 -0.2188 2.55837 0.0361313 -0.0695832 -1.12023
2 Si 3.8406 0.0232467 -0.00590883 -1.76667 0.2188 -2.55837 -0.0361313 0.0695832 1.12023
ITEM: TIMESTEP
1300
ITEM: NUMBER OF ATOMS
2
ITEM: BOX BOUNDS xy xz yz pp pp pp
1.2510717075864576e-02 7.6100518487724162e+00 1.8993852829241340e+00
1.0834598771962623e-02 4.3972773331988710e+00 1.8993852829241340e+00
1.0214957409252644e-02 3.1118980425907328e+00 1.0966109319708228e+00
ITEM: ATOMS id element x y z vx vy vz fx fy fz
1 Si 1.91797 1.12866 0.752871 -1.72558 0.279763 0.431181 0.649285 -0.0440181 1.42627
2 Si 3.85017 0.0285633 0.0796956 1.72558 -0.279763 -0.431181 -0.649285 0.0440181 -1.42627
ITEM: TIMESTEP
1400
ITEM: NUMBER OF ATOMS
2
ITEM: BOX BOUNDS xy xz yz pp pp pp
-1.9015675091622450e-03 7.6532887025274974e+00 1.9137975675091607e+00
-1.6468057645821991e-03 4.4180796766058510e+00 1.9137975675091607e+00
-1.5526233228101887e-03 3.1236656233227937e+00 1.1049318708412579e+00
ITEM: ATOMS id element x y z vx vy vz fx fy fz
1 Si 1.96723 1.11993 0.836075 0.00996496 -0.00280071 -4.40142 -0.91022 0.162379 -1.30804
2 Si 3.81567 0.0209443 -0.0208811 -0.00996496 0.00280071 4.40142 0.91022 -0.162379 1.30804
ITEM: TIMESTEP
1500
ITEM: NUMBER OF ATOMS
2
ITEM: BOX BOUNDS xy xz yz pp pp pp
-1.0329281014555469e-02 7.6785718430436765e+00 1.9222252810145541e+00
-8.9454197322920339e-03 4.4302440346880498e+00 1.9222252810145541e+00
-8.4338223774295014e-03 3.1305468223774136e+00 1.1097976149557442e+00
ITEM: ATOMS id element x y z vx vy vz fx fy fz
1 Si 1.91615 1.12237 0.775484 2.53542 -0.298317 5.0051 0.614664 -0.0330975 0.585821
2 Si 3.87537 0.00894815 0.0295511 -2.53542 0.298317 -5.0051 -0.614664 0.0330975 -0.585821
ITEM: TIMESTEP
1600
ITEM: NUMBER OF ATOMS
2
ITEM: BOX BOUNDS xy xz yz pp pp pp
-1.3859678768074373e-02 7.6891630363042296e+00 1.9257556787680730e+00
-1.2002833862340740e-02 4.4353397255203149e+00 1.9257556787680730e+00
-1.1316379985538813e-02 3.1334293799855222e+00 1.1118358916579592e+00
ITEM: ATOMS id element x y z vx vy vz fx fy fz
1 Si 1.93352 1.12195 0.776592 -2.04885 0.157419 -2.58299 0.0381982 -0.0784755 0.493956
2 Si 3.86162 0.00536639 0.0241877 2.04885 -0.157419 2.58299 -0.0381982 0.0784755 -0.493956
ITEM: TIMESTEP
1700
ITEM: NUMBER OF ATOMS
2
ITEM: BOX BOUNDS xy xz yz pp pp pp
-2.6972674997713181e-02 7.7285020249931495e+00 1.9388686749977120e+00
-2.3359021679942419e-02 4.4542667075025317e+00 1.9388686749977120e+00
-2.2023096249787814e-02 3.1441360962497713e+00 1.1194066858225709e+00
ITEM: ATOMS id element x y z vx vy vz fx fy fz
1 Si 1.95089 1.11408 0.814245 0.79966 0.0706864 0.28833 -0.428351 0.0665841 -0.814824
2 Si 3.85768 -0.0016383 -0.0292721 -0.79966 -0.0706864 -0.28833 0.428351 -0.0665841 0.814824
ITEM: TIMESTEP
1800
ITEM: NUMBER OF ATOMS
2
ITEM: BOX BOUNDS xy xz yz pp pp pp
-4.6811047757907169e-02 7.7880171432737306e+00 1.9587070477579058e+00
-4.0539556404048764e-02 4.4829009355014664e+00 1.9587070477579058e+00
-3.8221059291043268e-02 3.1603340592910247e+00 1.1308603790974021e+00
ITEM: ATOMS id element x y z vx vy vz fx fy fz
1 Si 1.91768 1.11092 0.757485 1.03273 -0.277122 2.19026 0.503087 0.00590648 0.579062
2 Si 3.91119 -0.020973 0.00357402 -1.03273 0.277122 -2.19026 -0.503087 -0.00590648 -0.579062
ITEM: TIMESTEP
1900
ITEM: NUMBER OF ATOMS
2
ITEM: BOX BOUNDS xy xz yz pp pp pp
-3.6940641907978286e-02 7.7584059257239426e+00 1.9488366419079763e+00
-3.1991534220191867e-02 4.4686542301408316e+00 1.9488366419079763e+00
-3.0161906905311099e-02 3.1522749069052929e+00 1.1251616959206221e+00
ITEM: ATOMS id element x y z vx vy vz fx fy fz
1 Si 1.9428 1.11784 0.778344 -2.73636 0.334561 -4.11882 -0.22077 -0.132546 0.168427
2 Si 3.87597 -0.0167035 -0.00538663 2.73636 -0.334561 4.11882 0.22077 0.132546 -0.168427
ITEM: TIMESTEP
2000
ITEM: NUMBER OF ATOMS
2
ITEM: BOX BOUNDS xy xz yz pp pp pp
-8.4680864320295906e-03 7.6729882592961003e+00 1.9203640864320279e+00
-7.3335779476871475e-03 4.4275576313892175e+00 1.9203640864320279e+00
-6.9141634101957446e-03 3.1290271634101781e+00 1.1087230534415145e+00
ITEM: ATOMS id element x y z vx vy vz fx fy fz
1 Si 1.95467 1.11657 0.824441 2.38402 0.167926 3.45341 -0.577418 0.155679 -0.975281
2 Si 3.83495 0.0168591 -0.0171629 -2.38402 -0.167926 -3.45341 0.577418 -0.155679 0.975281
ITEM: TIMESTEP
2100
ITEM: NUMBER OF ATOMS
2
ITEM: BOX BOUNDS xy xz yz pp pp pp
-1.8915044179268882e-03 7.6532585132537925e+00 1.9137875044179249e+00
-1.6380908719571203e-03 4.4180651517830576e+00 1.9137875044179249e+00
-1.5444068434716353e-03 3.1236574068434515e+00 1.1049260609110869e+00
ITEM: ATOMS id element x y z vx vy vz fx fy fz
1 Si 1.90696 1.12505 0.75273 -0.592273 -0.809428 -0.314164 1.00742 -0.0120592 1.25297
2 Si 3.87592 0.0158408 0.0624757 0.592273 0.809428 0.314164 -1.00742 0.0120592 -1.25297
ITEM: TIMESTEP
2200
ITEM: NUMBER OF ATOMS
2
ITEM: BOX BOUNDS xy xz yz pp pp pp
6.2103376491859494e-04 7.6457208987052558e+00 1.9112749662350792e+00
5.3783101527481083e-04 4.4144386148662766e+00 1.9112749662350792e+00
5.0707193038827239e-04 3.1216059280695911e+00 1.1034754458815426e+00
ITEM: ATOMS id element x y z vx vy vz fx fy fz
1 Si 1.958 1.12982 0.82897 -1.51917 0.655341 -2.7423 -0.658338 -0.139796 -1.03781
2 Si 3.82232 0.0139198 -0.0107353 1.51917 -0.655341 2.7423 0.658338 0.139796 1.03781
ITEM: TIMESTEP
2300
ITEM: NUMBER OF ATOMS
2
ITEM: BOX BOUNDS xy xz yz pp pp pp
4.5397065760265599e-03 7.6339648802719298e+00 1.9073562934239705e+00
3.9315012077576371e-03 4.4087824971955971e+00 1.9073562934239705e+00
3.7066547859159454e-03 3.1184063452140611e+00 1.1012129984033454e+00
ITEM: ATOMS id element x y z vx vy vz fx fy fz
1 Si 1.93425 1.11798 0.795652 2.34588 0.187681 3.48688 0.00780598 0.226404 0.173215
2 Si 3.84205 0.0302078 0.0273067 -2.34588 -0.187681 -3.48688 -0.00780598 -0.226404 -0.173215
ITEM: TIMESTEP
2400
ITEM: NUMBER OF ATOMS
2
ITEM: BOX BOUNDS xy xz yz pp pp pp
1.7590659771985408e-03 7.6423068020684175e+00 1.9101369340227992e+00
1.5233958182220724e-03 4.4127960066629521e+00 1.9101369340227992e+00
1.4362713126682073e-03 3.1206767286873074e+00 1.1028184024811647e+00
ITEM: ATOMS id element x y z vx vy vz fx fy fz
1 Si 1.92421 1.12682 0.781749 -1.15885 -0.59022 -1.70067 0.357487 -0.0937104 0.563276
2 Si 3.85494 0.0182059 0.0378578 1.15885 0.59022 1.70067 -0.357487 0.0937104 -0.563276
ITEM: TIMESTEP
2500
ITEM: NUMBER OF ATOMS
2
ITEM: BOX BOUNDS xy xz yz pp pp pp
-2.7268658648257317e-02 7.7293899759447866e+00 1.9391646586482549e+00
-2.3615351039590362e-02 4.4546939231535383e+00 1.9391646586482549e+00
-2.2264765881186737e-02 3.1443777658811616e+00 1.1195775721139367e+00
ITEM: ATOMS id element x y z vx vy vz fx fy fz
1 Si 1.94694 1.11856 0.807101 -0.233747 0.440179 -0.299492 -0.325479 -0.06429 -0.584831
2 Si 3.86192 -0.00645092 -0.0224846 0.233747 -0.440179 0.299492 0.325479 0.06429 0.584831
ITEM: TIMESTEP
2600
ITEM: NUMBER OF ATOMS
2
ITEM: BOX BOUNDS xy xz yz pp pp pp
-2.9085610856602676e-02 7.7348408325698230e+00 1.9409816108566003e+00
-2.5188877804354790e-02 4.4573164680782584e+00 1.9409816108566003e+00
-2.3748301102260158e-02 3.1458613011022361e+00 1.1206265902738910e+00
ITEM: ATOMS id element x y z vx vy vz fx fy fz
1 Si 1.93106 1.10958 0.777143 1.43898 0.000651976 2.15833 0.118448 0.172736 0.291498
2 Si 3.87966 0.000466202 0.00528251 -1.43898 -0.000651976 -2.15833 -0.118448 -0.172736 -0.291498
ITEM: TIMESTEP
2700
ITEM: NUMBER OF ATOMS
2
ITEM: BOX BOUNDS xy xz yz pp pp pp
-2.7634687398478040e-02 7.7304880621954455e+00 1.9395306873984757e+00
-2.3932341234762931e-02 4.4552222402093111e+00 1.9395306873984757e+00
-2.2563627095248007e-02 3.1446766270952238e+00 1.1197888989745328e+00
ITEM: ATOMS id element x y z vx vy vz fx fy fz
1 Si 1.92433 1.12389 0.766676 -2.30944 -1.04496 -3.81707 0.317252 -0.25226 0.584817
2 Si 3.88491 -0.0121936 0.0174989 2.30944 1.04496 3.81707 -0.317252 0.25226 -0.584817
ITEM: TIMESTEP
2800
ITEM: NUMBER OF ATOMS
2
ITEM: BOX BOUNDS xy xz yz pp pp pp
-2.7495187089858934e-02 7.7300695612695902e+00 1.9393911870898564e+00
-2.3811530424056513e-02 4.4550208888338112e+00 1.9393911870898564e+00
-2.2449725573660408e-02 3.1445627255736319e+00 1.1197083584097407e+00
ITEM: ATOMS id element x y z vx vy vz fx fy fz
1 Si 1.96397 1.12202 0.830439 0.458282 1.47391 2.25017 -0.676244 -0.0957902 -1.34882
2 Si 3.84513 -0.0101717 -0.0460963 -0.458282 -1.47391 -2.25017 0.676244 0.0957902 1.34882
ITEM: TIMESTEP
2900
ITEM: NUMBER OF ATOMS
2
ITEM: BOX BOUNDS xy xz yz pp pp pp
-2.1960832945135018e-02 7.7134664988354196e+00 1.9338568329451320e+00
-1.9018639156801898e-02 4.4470327357568218e+00 1.9338568329451320e+00
-1.7930944473159970e-02 3.1400439444731294e+00 1.1165130966000063e+00
ITEM: ATOMS id element x y z vx vy vz fx fy fz
1 Si 1.91545 1.10182 0.741523 1.39163 -0.634191 1.23587 0.707744 0.539247 1.20552
2 Si 3.88798 0.016305 0.0494907 -1.39163 0.634191 -1.23587 -0.707744 -0.539247 -1.20552
ITEM: TIMESTEP
3000
ITEM: NUMBER OF ATOMS
2
ITEM: BOX BOUNDS xy xz yz pp pp pp
1.8611099224356862e-02 7.5917507023269408e+00 1.8932849007756394e+00
1.6117684668138395e-02 4.3884721889749949e+00 1.8932849007756394e+00
1.5195898425588595e-02 3.1069171015743833e+00 1.0930888736431197e+00
ITEM: ATOMS id element x y z vx vy vz fx fy fz
1 Si 1.9402 1.14307 0.825974 -1.57165 -0.646501 -3.4336 -0.17895 -0.49087 -0.726228
2 Si 3.8217 0.021073 0.0139464 1.57165 0.646501 3.4336 0.17895 0.49087 0.726228
ITEM: TIMESTEP
3100
ITEM: NUMBER OF ATOMS
2
ITEM: BOX BOUNDS xy xz yz pp pp pp
1.7500747708812488e-02 7.5950817568735722e+00 1.8943952522911836e+00
1.5156092051679091e-02 4.3900748435293488e+00 1.8943952522911836e+00
1.4289300236866916e-02 3.1078236997631037e+00 1.0937299355810122e+00
ITEM: ATOMS id element x y z vx vy vz fx fy fz
1 Si 1.94141 1.12645 0.811001 0.793101 1.05088 2.62561 -0.249255 0.0688038 -0.177869
2 Si 3.82163 0.0364314 0.0275803 -0.793101 -1.05088 -2.62561 0.249255 -0.0688038 0.177869
ITEM: TIMESTEP
3200
ITEM: NUMBER OF ATOMS
2
ITEM: BOX BOUNDS xy xz yz pp pp pp
9.6043435203865008e-03 7.6187709694388479e+00 1.9022916564796100e+00
8.3176054482317196e-03 4.4014723225784804e+00 1.9022916564796100e+00
7.8419134098817248e-03 3.1142710865900907e+00 1.0982889280266928e+00
ITEM: ATOMS id element x y z vx vy vz fx fy fz
1 Si 1.92593 1.1199 0.78102 0.0653399 -0.719352 -0.803823 0.321937 0.231642 0.693773
2 Si 3.84519 0.034031 0.0480437 -0.0653399 0.719352 0.803823 -0.321937 -0.231642 -0.693773
ITEM: TIMESTEP
3300
ITEM: NUMBER OF ATOMS
2
ITEM: BOX BOUNDS xy xz yz pp pp pp
1.2833434431136618e-03 7.6437339696706639e+00 1.9106126565568828e+00
1.1114080198970488e-03 4.4134826530764464e+00 1.9106126565568828e+00
1.0478455018320932e-03 3.1210651544981411e+00 1.1030930610963239e+00
ITEM: ATOMS id element x y z vx vy vz fx fy fz
1 Si 1.94213 1.13961 0.827969 -1.07893 -0.0856742 -2.02263 -0.204483 -0.479895 -1.01088
2 Si 3.83751 0.00488093 -0.00893641 1.07893 0.0856742 2.02263 0.204483 0.479895 1.01088
ITEM: TIMESTEP
3400
ITEM: NUMBER OF ATOMS
2
ITEM: BOX BOUNDS xy xz yz pp pp pp
-1.5105824970973377e-02 7.6929014749129196e+00 1.9270018249709693e+00
-1.3082028127366446e-02 4.4371383828459532e+00 1.9270018249709693e+00
-1.2333854068858287e-02 3.1344468540688286e+00 1.1125553547185685e+00
ITEM: ATOMS id element x y z vx vy vz fx fy fz
1 Si 1.94317 1.10829 0.768007 1.8679 2.12608 5.00475 -0.297874 0.361766 0.709946
2 Si 3.85324 0.0176146 0.03127 -1.8679 -2.12608 -5.00475 0.297874 -0.361766 -0.709946
ITEM: TIMESTEP
3500
ITEM: NUMBER OF ATOMS
2
ITEM: BOX BOUNDS xy xz yz pp pp pp
-6.4362812153085633e-02 7.8406724364592604e+00 1.9762588121530820e+00
-5.5739830201996819e-02 4.5082347282248154e+00 1.9762588121530820e+00
-5.2552014476671328e-02 3.1746650144766391e+00 1.1409938980227985e+00
ITEM: ATOMS id element x y z vx vy vz fx fy fz
1 Si 1.92407 1.10492 0.755472 -0.853887 -2.47908 -5.36494 0.298967 0.0235497 0.425559
2 Si 3.92277 -0.0348896 -0.0155702 0.853887 2.47908 5.36494 -0.298967 -0.0235497 -0.425559
ITEM: TIMESTEP
3600
ITEM: NUMBER OF ATOMS
2
ITEM: BOX BOUNDS xy xz yz pp pp pp
-4.4548157447335784e-02 7.7812284723420131e+00 1.9564441574473328e+00
-3.8579835915500807e-02 4.4796347342926977e+00 1.9564441574473328e+00
-3.6373417145191350e-02 3.1584864171451601e+00 1.1295538983771751e+00
ITEM: ATOMS id element x y z vx vy vz fx fy fz
1 Si 1.94358 1.12575 0.810792 -0.480162 0.909329 2.79207 -0.18964 -0.364541 -0.867108
2 Si 3.88298 -0.0332383 -0.0470054 0.480162 -0.909329 -2.79207 0.18964 0.364541 0.867108
ITEM: TIMESTEP
3700
ITEM: NUMBER OF ATOMS
2
ITEM: BOX BOUNDS xy xz yz pp pp pp
-3.0357881752159307e-02 7.7386576452564881e+00 1.9422538817521566e+00
-2.6290696716810058e-02 4.4591528331541799e+00 1.9422538817521566e+00
-2.4787105907161381e-02 3.1469001059071311e+00 1.1213611364373488e+00
ITEM: ATOMS id element x y z vx vy vz fx fy fz
1 Si 1.93449 1.10296 0.753306 0.759283 0.443535 0.656917 0.0134762 0.373767 0.856357
2 Si 3.87754 0.00564074 0.0275862 -0.759283 -0.443535 -0.656917 -0.0134762 -0.373767 -0.856357
ITEM: TIMESTEP
3800
ITEM: NUMBER OF ATOMS
2
ITEM: BOX BOUNDS xy xz yz pp pp pp
-1.7097526574372583e-02 7.6988765797231284e+00 1.9289935265743696e+00
-1.4806892307052798e-02 4.4400131568260139e+00 1.9289935265743696e+00
-1.3960071569208509e-02 3.1360730715691814e+00 1.1137052645189400e+00
ITEM: ATOMS id element x y z vx vy vz fx fy fz
1 Si 1.92943 1.12318 0.804979 -0.437015 -1.25043 -3.19839 0.151718 -0.131478 -0.407525
2 Si 3.86903 0.000458801 -0.00810224 0.437015 1.25043 3.19839 -0.151718 0.131478 0.407525
ITEM: TIMESTEP
3900
ITEM: NUMBER OF ATOMS
2
ITEM: BOX BOUNDS xy xz yz pp pp pp
-2.9039816880764304e-03 7.6562959450642456e+00 1.9147999816880736e+00
-2.5149219058121217e-03 4.4195265370160000e+00 1.9147999816880736e+00
-2.3710910478864700e-03 3.1244840910478620e+00 1.1055106151101752e+00
ITEM: ATOMS id element x y z vx vy vz fx fy fz
1 Si 1.94546 1.13759 0.8099 -0.546036 1.8254 6.08676 -0.312256 -0.473011 -0.38796
2 Si 3.83846 0.00215482 0.00408504 0.546036 -1.8254 -6.08676 0.312256 0.473011 0.38796
ITEM: TIMESTEP
4000
ITEM: NUMBER OF ATOMS
2
ITEM: BOX BOUNDS xy xz yz pp pp pp
3.8123004188604433e-02 7.5332149874342029e+00 1.8737729958113933e+00
3.3015489988353255e-02 4.3603091767061288e+00 1.8737729958113933e+00
3.1127301635712017e-02 3.0909856983642641e+00 1.0818236666944674e+00
ITEM: ATOMS id element x y z vx vy vz fx fy fz
1 Si 1.92706 1.11591 0.758986 1.85283 -0.709796 -4.72804 0.342932 0.783094 1.67771
2 Si 3.81487 0.0703636 0.104454 -1.85283 0.709796 4.72804 -0.342932 -0.783094 -1.67771
ITEM: TIMESTEP
4100
ITEM: NUMBER OF ATOMS
2
ITEM: BOX BOUNDS xy xz yz pp pp pp
2.3342304688554791e-02 7.5775570859343517e+00 1.8885536953114426e+00
2.0215028777305698e-02 4.3816432813015114e+00 1.8885536953114426e+00
1.9058911394244423e-02 3.1030540886057301e+00 1.0903573100788033e+00
ITEM: ATOMS id element x y z vx vy vz fx fy fz
1 Si 1.92616 1.14166 0.851175 -1.20933 -0.628475 1.84598 0.225255 -0.356087 -1.75663
2 Si 3.83089 0.0278507 -0.00555219 1.20933 0.628475 -1.84598 -0.225255 0.356087 1.75663
ITEM: TIMESTEP
4200
ITEM: NUMBER OF ATOMS
2
ITEM: BOX BOUNDS xy xz yz pp pp pp
3.7881261790688142e-03 7.6362196214628018e+00 1.9081078738209283e+00
3.2806134931223315e-03 4.4098673101843628e+00 1.9081078738209283e+00
3.0929919800141872e-03 3.1190200080199597e+00 1.1016469236774717e+00
ITEM: ATOMS id element x y z vx vy vz fx fy fz
1 Si 1.94691 1.12336 0.764677 0.151423 0.962164 1.64108 -0.464989 0.0556835 1.0418
2 Si 3.83017 0.0239689 0.0573753 -0.151423 -0.962164 -1.64108 0.464989 -0.0556835 -1.0418
ITEM: TIMESTEP
4300
ITEM: NUMBER OF ATOMS
2
ITEM: BOX BOUNDS xy xz yz pp pp pp
-9.0902013794137686e-03 7.6748546041382513e+00 1.9209862013794110e+00
-7.8723452944499082e-03 4.4284555770756144e+00 1.9209862013794110e+00
-7.4221181223668442e-03 3.1295351181223388e+00 1.1090822317811508e+00
ITEM: ATOMS id element x y z vx vy vz fx fy fz
1 Si 1.92421 1.11544 0.800206 0.960145 -0.601343 -3.81858 0.334176 0.176783 -0.147779
2 Si 3.86604 0.0172871 0.00632255 -0.960145 0.601343 3.81858 -0.334176 -0.176783 0.147779
ITEM: TIMESTEP
4400
ITEM: NUMBER OF ATOMS
2
ITEM: BOX BOUNDS xy xz yz pp pp pp
-2.7276558310919154e-02 7.7294136749327684e+00 1.9391725583109167e+00
-2.3622192348116317e-02 4.4547053253357953e+00 1.9391725583109167e+00
-2.2271215928547923e-02 3.1443842159285178e+00 1.1195821329876654e+00
ITEM: ATOMS id element x y z vx vy vz fx fy fz
1 Si 1.92945 1.12609 0.813713 -1.94941 -0.251983 4.49562 0.135434 -0.277084 -0.807709
2 Si 3.87943 -0.0139949 -0.0291065 1.94941 0.251983 -4.49562 -0.135434 0.277084 0.807709
ITEM: TIMESTEP
4500
ITEM: NUMBER OF ATOMS
2
ITEM: BOX BOUNDS xy xz yz pp pp pp
-7.1339532414470205e-02 7.8616025972434214e+00 1.9832355324144670e+00
-6.1781847163778159e-02 4.5183047577108120e+00 1.9832355324144670e+00
-5.8248482544349771e-02 3.1803614825443183e+00 1.1450219105470203e+00
ITEM: ATOMS id element x y z vx vy vz fx fy fz
1 Si 1.95964 1.09997 0.694784 2.9476 1.15793 -3.12991 -0.706298 0.140972 1.28153
2 Si 3.89434 -0.037849 0.0367078 -2.9476 -1.15793 3.12991 0.706298 -0.140972 -1.28153
ITEM: TIMESTEP
4600
ITEM: NUMBER OF ATOMS
2
ITEM: BOX BOUNDS xy xz yz pp pp pp
-6.2585278283452936e-02 7.8353398348503731e+00 1.9744812782834507e+00
-5.4200440719831648e-02 4.5056690787779567e+00 1.9744812782834507e+00
-5.1100664193418389e-02 3.1732136641933875e+00 1.1399676380581105e+00
ITEM: ATOMS id element x y z vx vy vz fx fy fz
1 Si 1.90237 1.10102 0.826522 -0.329268 -0.751827 1.13456 0.659303 0.155994 -1.4543
2 Si 3.94264 -0.028974 -0.0844777 0.329268 0.751827 -1.13456 -0.659303 -0.155994 1.4543
ITEM: TIMESTEP
4700
ITEM: NUMBER OF ATOMS
2
ITEM: BOX BOUNDS xy xz yz pp pp pp
-1.6763694479714854e-02 7.6978750834391603e+00 1.9286596944797125e+00
-1.4517785233429106e-02 4.4395313116450952e+00 1.9286596944797125e+00
-1.3687498813545095e-02 3.1358004988135137e+00 1.1135125264116532e+00
ITEM: ATOMS id element x y z vx vy vz fx fy fz
1 Si 1.95297 1.12647 0.749998 -1.56395 0.0639091 1.83096 -0.606601 -0.243524 1.10108
2 Si 3.84514 -0.00245197 0.047281 1.56395 -0.0639091 -1.83096 0.606601 0.243524 -1.10108
ITEM: TIMESTEP
4800
ITEM: NUMBER OF ATOMS
2
ITEM: BOX BOUNDS xy xz yz pp pp pp
-8.3947563955674709e-04 7.6501024269186875e+00 1.9127354756395545e+00
-7.2700722735276552e-04 4.4165466788586301e+00 1.9127354756395545e+00
-6.8542896881880174e-04 3.1227984289687876e+00 1.1043186716312650e+00
ITEM: ATOMS id element x y z vx vy vz fx fy fz
1 Si 1.93172 1.11913 0.809337 2.13862 0.529387 -4.0071 0.0909148 0.127857 -0.362474
2 Si 3.85009 0.0229499 0.00713701 -2.13862 -0.529387 4.0071 -0.0909148 -0.127857 0.362474
ITEM: TIMESTEP
4900
ITEM: NUMBER OF ATOMS
2
ITEM: BOX BOUNDS xy xz yz pp pp pp
9.4960272871701217e-03 7.6190959181385081e+00 1.9023999727128273e+00
8.2238008389227055e-03 4.4016286636128736e+00 1.9023999727128273e+00
7.7534735784615862e-03 3.1143595264215089e+00 1.0983514644517849e+00
ITEM: ATOMS id element x y z vx vy vz fx fy fz
1 Si 1.91833 1.12404 0.817944 -1.27572 -0.671781 3.82085 0.525079 0.0873467 -0.52968
2 Si 3.8529 0.0297628 0.010989 1.27572 0.671781 -3.82085 -0.525079 -0.0873467 0.52968
ITEM: TIMESTEP
5000
ITEM: NUMBER OF ATOMS
2
ITEM: BOX BOUNDS xy xz yz pp pp pp
2.5032270617958735e-02 7.5724871881461366e+00 1.8868637293820383e+00
2.1678582198931755e-02 4.3792040253041620e+00 1.8868637293820383e+00
2.0438762755860533e-02 3.1016742372441102e+00 1.0893816075030802e+00
ITEM: ATOMS id element x y z vx vy vz fx fy fz
1 Si 1.95658 1.13784 0.757658 -0.351996 0.379231 -1.7974 -0.905002 -0.267118 1.51802
2 Si 3.79875 0.033586 0.0900025 0.351996 -0.379231 1.7974 0.905002 0.267118 -1.51802
ITEM: TIMESTEP
5100
ITEM: NUMBER OF ATOMS
2
ITEM: BOX BOUNDS xy xz yz pp pp pp
-2.2839691138097965e-03 7.6544359073414396e+00 1.9141799691138068e+00
-1.9779752675809039e-03 4.4186316258441867e+00 1.9141799691138068e+00
-1.8648529161402350e-03 3.1239778529161120e+00 1.1051526505765938e+00
ITEM: ATOMS id element x y z vx vy vz fx fy fz
1 Si 1.91696 1.11387 0.869159 2.19384 0.345911 -0.135256 0.415268 0.215594 -2.75099
2 Si 3.86632 0.0265741 -0.0544266 -2.19384 -0.345911 0.135256 -0.415268 -0.215594 2.75099
ITEM: TIMESTEP
5200
ITEM: NUMBER OF ATOMS
2
ITEM: BOX BOUNDS xy xz yz pp pp pp
-2.3873916566631143e-02 7.7192057496999045e+00 1.9357699165666284e+00
-2.0675418167185041e-02 4.4497940344410027e+00 1.9357699165666284e+00
-1.9492970662023330e-02 3.1416059706619928e+00 1.1176176162738056e+00
ITEM: ATOMS id element x y z vx vy vz fx fy fz
1 Si 1.92871 1.11961 0.732466 -1.8845 -0.608554 2.3874 0.208031 -0.0950812 1.31449
2 Si 3.87668 -0.00364839 0.0562421 1.8845 0.608554 -2.3874 -0.208031 0.0950812 -1.31449
ITEM: TIMESTEP
5300
ITEM: NUMBER OF ATOMS
2
ITEM: BOX BOUNDS xy xz yz pp pp pp
-3.0531269980645336e-02 7.7391778099419444e+00 1.9424272699806422e+00
-2.6440855326910782e-02 4.4594030975345662e+00 1.9424272699806422e+00
-2.4928676798623397e-02 3.1470416767985947e+00 1.1214612422076460e+00
ITEM: ATOMS id element x y z vx vy vz fx fy fz
1 Si 1.94791 1.11657 0.796107 0.33629 0.356589 -4.08973 -0.361995 -0.0340804 -0.268584
2 Si 3.86429 -0.00816657 -0.0154237 -0.33629 -0.356589 4.08973 0.361995 0.0340804 0.268584
ITEM: TIMESTEP
5400
ITEM: NUMBER OF ATOMS
2
ITEM: BOX BOUNDS xy xz yz pp pp pp
-3.8254777181682298e-02 7.7623483315450539e+00 1.9501507771816793e+00
-3.3129608747532152e-02 4.4705510212488351e+00 1.9501507771816793e+00
-3.1234893830813140e-02 3.1533478938307846e+00 1.1259204125012967e+00
ITEM: ATOMS id element x y z vx vy vz fx fy fz
1 Si 1.92672 1.10929 0.80164 1.02278 -0.0088022 3.62735 0.220661 0.0953433 -0.528253
2 Si 3.8934 -0.00964612 -0.0302672 -1.02278 0.0088022 -3.62735 -0.220661 -0.0953433 0.528253
ITEM: TIMESTEP
5500
ITEM: NUMBER OF ATOMS
2
ITEM: BOX BOUNDS xy xz yz pp pp pp
-4.2428856380855640e-02 7.7748705691425730e+00 1.9543248563808522e+00
-3.6744467359647780e-02 4.4765757863301019e+00 1.9543248563808522e+00
-3.4643015122654192e-02 3.1567560151226264e+00 1.1283303189704457e+00
ITEM: ATOMS id element x y z vx vy vz fx fy fz
1 Si 1.93106 1.1144 0.73459 -1.65292 -0.343521 -0.725894 0.122777 -0.0865611 1.06674
2 Si 3.89332 -0.0194901 0.0317521 1.65292 0.343521 0.725894 -0.122777 0.0865611 -1.06674
ITEM: TIMESTEP
5600
ITEM: NUMBER OF ATOMS
2
ITEM: BOX BOUNDS xy xz yz pp pp pp
-3.7563671759908490e-02 7.7602750152797348e+00 1.9494596717599049e+00
-3.2531093897531158e-02 4.4695534963783450e+00 1.9494596717599049e+00
-3.0670608633896545e-02 3.1527836086338681e+00 1.1255214024808040e+00
ITEM: ATOMS id element x y z vx vy vz fx fy fz
1 Si 1.96278 1.11532 0.83748 1.12377 0.547995 -3.94645 -0.59369 -0.00275888 -1.6843
2 Si 3.85662 -0.0148856 -0.0652741 -1.12377 -0.547995 3.94645 0.59369 0.00275888 1.6843
ITEM: TIMESTEP
5700
ITEM: NUMBER OF ATOMS
2
ITEM: BOX BOUNDS xy xz yz pp pp pp
-4.5332269081769230e-03 7.6611836807245375e+00 1.9164292269081731e+00
-3.9258896508159091e-03 4.4218781502083919e+00 1.9164292269081731e+00
-3.7013641594638240e-03 3.1258143641594365e+00 1.1064512605575678e+00
ITEM: ATOMS id element x y z vx vy vz fx fy fz
1 Si 1.90038 1.11511 0.735578 1.50657 -0.29282 4.60213 1.32465 0.364854 1.54189
2 Si 3.88522 0.022783 0.0764436 -1.50657 0.29282 -4.60213 -1.32465 -0.364854 -1.54189
ITEM: TIMESTEP
5800
ITEM: NUMBER OF ATOMS
2
ITEM: BOX BOUNDS xy xz yz pp pp pp
1.0258143466591050e-02 7.6168095696002309e+00 1.9016378565334044e+00
8.8838128087880899e-03 4.4005286435302171e+00 1.9016378565334044e+00
8.3757388144641634e-03 3.1137372611855101e+00 1.0979114563389991e+00
ITEM: ATOMS id element x y z vx vy vz fx fy fz
1 Si 1.94971 1.13378 0.810029 -1.96764 -0.130235 -3.9625 -0.492648 -0.235252 -0.226187