 vasp.6.2.1 16May21 (build Oct 27 2021 18:14:32) complex                        
  
 executed on             LinuxIFC date 2021.11.21  14:18:12
 running on    4 total cores
 distrk:  each k-point on    4 cores,    1 groups
 distr:  one band on NCORE=   4 cores,    1 groups


--------------------------------------------------------------------------------------------------------


 INCAR:
   ALGO = Normal
   EDIFF = 1e-05
   EDIFFG = -0.02
   ENAUG = 1360
   ENCUT = 680
   IBRION = 2
   ISIF = 3
   ISMEAR = -5
   ISPIN = 2
   KSPACING = 0.22
   LAECHG = True
   LASPH = True
   LCHARG = True
   LELF = True
   LMIXTAU = True
   LORBIT = 11
   LREAL = Auto
   LVTOT = True
   LWAVE = False
   MAGMOM = 2*0.6
   NCORE = 4
   NELM = 200
   NSW = 1
   PREC = Accurate
   SIGMA = 0.2

 POTCAR:    PAW_PBE Si 05Jan2001                  
 WARNING: For LVTOT=.TRUE., VASP.5.x writes the TOTAL local potential to the
     file LOCPOT. If you want only the Hartree contributions, use LVHAR=.TRUE.
     instead. 

 POTCAR:    PAW_PBE Si 05Jan2001                  
   VRHFIN =Si: s2p2                                                                                 
   LEXCH  = PE                                                                                      
   EATOM  =   103.0669 eV,    7.5752 Ry                                                             
                                                                                                    
   TITEL  = PAW_PBE Si 05Jan2001                                                                    
   LULTRA =        F    use ultrasoft PP ?                                                          
   IUNSCR =        1    unscreen: 0-lin 1-nonlin 2-no                                               
   RPACOR =    1.500    partial core radius                                                         
   POMASS =   28.085; ZVAL   =    4.000    mass and valenz                                          
   RCORE  =    1.900    outmost cutoff radius                                                       
   RWIGS  =    2.480; RWIGS  =    1.312    wigner-seitz radius (au A)                               
   ENMAX  =  245.345; ENMIN  =  184.009 eV                                                          
   ICORE  =        2    local potential                                                             
   LCOR   =        T    correct aug charges                                                         
   LPAW   =        T    paw PP                                                                      
   EAUG   =  322.069                                                                                
   DEXC   =    0.000                                                                                
   RMAX   =    1.950    core radius for proj-oper                                                   
   RAUG   =    1.300    factor for augmentation sphere                                              
   RDEP   =    1.993    radius for radial grids                                                     
   RDEPT  =    1.837    core radius for aug-charge                                                  
                                                                                                    
   Atomic configuration                                                                             
    6 entries                                                                                       
     n  l   j            E        occ.                                                              
     1  0  0.50     -1785.8828   2.0000                                                             
     2  0  0.50      -139.4969   2.0000                                                             
     2  1  1.50       -95.5546   6.0000                                                             
     3  0  0.50       -10.8127   2.0000                                                             
     3  1  0.50        -4.0811   2.0000                                                             
     3  2  1.50        -4.0817   0.0000                                                             
   Description                                                                                      
     l       E           TYP  RCUT    TYP  RCUT                                                     
     0    -10.8127223     23  1.900                                                                 
     0     -7.6451159     23  1.900                                                                 
     1     -4.0811372     23  1.900                                                                 
     1      2.4879257     23  1.900                                                                 
     2     -4.0817478      7  1.900                                                                 
  local pseudopotential read in
  partial core-charges read in
  partial kinetic energy density read in
  atomic valenz-charges read in
  non local Contribution for L=           0  read in
    real space projection operators read in
  non local Contribution for L=           0  read in
    real space projection operators read in
  non local Contribution for L=           1  read in
    real space projection operators read in
  non local Contribution for L=           1  read in
    real space projection operators read in
    PAW grid and wavefunctions read in
 
   number of l-projection  operators is LMAX  =           4
   number of lm-projection operators is LMMAX =           8
 
 -----------------------------------------------------------------------------
|                                                                             |
|               ----> ADVICE to this user running VASP <----                  |
|                                                                             |
|     You have a (more or less) 'small supercell' and for smaller cells       |
|     it is recommended to use the reciprocal-space projection scheme!        |
|     The real-space optimization is not efficient for small cells and it     |
|     is also less accurate ...                                               |
|     Therefore, set LREAL=.FALSE. in the INCAR file.                         |
|                                                                             |
 -----------------------------------------------------------------------------

 Optimization of the real space projectors (new method)

 maximal supplied QI-value         = 19.84
 optimisation between [QCUT,QGAM] = [ 13.29, 26.59] = [ 49.49,197.96] Ry 
 Optimized for a Real-space Cutoff    1.12 Angstroem

   l    n(q)    QCUT    max X(q) W(low)/X(q) W(high)/X(q)  e(spline) 
   0      9    13.294   159.560    0.23E-03    0.88E-04    0.53E-07
   0      9    13.294   115.863    0.22E-03    0.87E-04    0.52E-07
   1      8    13.294    88.339    0.81E-04    0.17E-03    0.12E-06
   1      8    13.294    48.592    0.79E-04    0.17E-03    0.12E-06
  PAW_PBE Si 05Jan2001                  :
 energy of atom  1       EATOM= -103.0669
 kinetic energy error for atom=    0.0003 (will be added to EATOM!!)
 
 
 POSCAR: Si2
  positions in direct lattice
  No initial velocities read in
 exchange correlation table for  LEXCH =        8
   RHO(1)=    0.500       N(1)  =     2000
   RHO(2)=  100.500       N(2)  =     4000
 


--------------------------------------------------------------------------------------------------------


 ion  position               nearest neighbor table
   1  0.250  0.250  0.250-   2 2.37   2 2.37   2 2.37   2 2.37
   2  0.000  0.000  0.000-   1 2.37   1 2.37   1 2.37   1 2.37
 
  LATTYP: Found a face centered cubic cell.
 ALAT       =     5.4687280757
  
  Lattice vectors:
  
 A1 = (   3.3488980000,   0.0000000000,   1.9334870000)
 A2 = (   1.1162990000,   3.1573720000,   1.9334870000)
 A3 = (   0.0000000000,   0.0000000000,   3.8669750000)


Analysis of symmetry for initial positions (statically):
=====================================================================
 Subroutine PRICEL returns:
 Original cell was already a primitive cell.
 

 Routine SETGRP: Setting up the symmetry group for a 
 face centered cubic supercell.


 Subroutine GETGRP returns: Found 48 space group operations
 (whereof 24 operations were pure point group operations)
 out of a pool of 48 trial point group operations.


The static configuration has the point symmetry T_d .
 The point group associated with its full space group is O_h .


Analysis of symmetry for dynamics (positions and initial velocities):
=====================================================================
 Subroutine PRICEL returns:
 Original cell was already a primitive cell.
 

 Routine SETGRP: Setting up the symmetry group for a 
 face centered cubic supercell.


 Subroutine GETGRP returns: Found 48 space group operations
 (whereof 24 operations were pure point group operations)
 out of a pool of 48 trial point group operations.


The dynamic configuration has the point symmetry T_d .
 The point group associated with its full space group is O_h .


Analysis of structural, dynamic, and magnetic symmetry:
=====================================================================
 Subroutine PRICEL returns:
 Original cell was already a primitive cell.
 

 Routine SETGRP: Setting up the symmetry group for a 
 face centered cubic supercell.


 Subroutine GETGRP returns: Found 48 space group operations
 (whereof 24 operations were pure point group operations)
 out of a pool of 48 trial point group operations.


The overall configuration has the point symmetry T_d .
 The point group associated with its full space group is O_h .


 Subroutine INISYM returns: Found 48 space group operations
 (whereof 24 operations are pure point group operations),
 and found     1 'primitive' translations


----------------------------------------------------------------------------------------

                                     Primitive cell                                     

  volume of cell :      40.8883

  direct lattice vectors                    reciprocal lattice vectors
     3.348898000  0.000000000  1.933487000     0.298605691 -0.105573000  0.000000000
     1.116299000  3.157372000  1.933487000     0.000000000  0.316719094  0.000000000
     0.000000000  0.000000000  3.866975000    -0.149302807 -0.105573020  0.258600069

  length of vectors
     3.866974243  3.866974707  3.866975000     0.316719145  0.316719094  0.316719096

  position of ions in fractional coordinates (direct lattice)
     0.250000000  0.250000000  0.250000000
     0.000000000  0.000000000  0.000000000

  ion indices of the primitive-cell ions
   primitive index   ion index
                 1           1
                 2           2

----------------------------------------------------------------------------------------

 
 -----------------------------------------------------------------------------
|                                                                             |
|           W    W    AA    RRRRR   N    N  II  N    N   GGGG   !!!           |
|           W    W   A  A   R    R  NN   N  II  NN   N  G    G  !!!           |
|           W    W  A    A  R    R  N N  N  II  N N  N  G       !!!           |
|           W WW W  AAAAAA  RRRRR   N  N N  II  N  N N  G  GGG   !            |
|           WW  WW  A    A  R   R   N   NN  II  N   NN  G    G                |
|           W    W  A    A  R    R  N    N  II  N    N   GGGG   !!!           |
|                                                                             |
|     The requested file  could not be found or opened for reading            |
|     k-point information. Automatic k-point generation is used as a          |
|     fallback, which may lead to unwanted results.                           |
|                                                                             |
 -----------------------------------------------------------------------------

 

Automatic generation of k-mesh.
 Grid dimensions derived from KSPACING:
 generate k-points for:   10   10   10

 Generating k-lattice:

  Cartesian coordinates                     Fractional coordinates (reciprocal lattice)
     0.029860569 -0.010557300  0.000000000     0.100000000 -0.000000000  0.000000000
     0.000000000  0.031671909  0.000000000     0.000000000  0.100000000  0.000000000
    -0.014930281 -0.010557302  0.025860007    -0.000000000  0.000000000  0.100000000

  Length of vectors
     0.031671914  0.031671909  0.031671910

  Shift w.r.t. Gamma in fractional coordinates (k-lattice)
     0.000000000  0.000000000  0.000000000

 TETIRR: Found    148 inequivalent tetrahedra from     6000
 
 Subroutine IBZKPT returns following result:
 ===========================================
 
 Found     47 irreducible k-points:
 
 Following reciprocal coordinates:
            Coordinates               Weight
  0.000000  0.000000  0.000000      1.000000
  0.100000  0.000000  0.000000      8.000000
  0.200000  0.000000  0.000000      8.000000
  0.300000 -0.000000  0.000000      8.000000
  0.400000  0.000000  0.000000      8.000000
  0.500000  0.000000  0.000000      4.000000
  0.100000  0.100000  0.000000      6.000000
  0.200000  0.100000  0.000000     24.000000
  0.300000  0.100000  0.000000     24.000000
  0.400000  0.100000  0.000000     24.000000
  0.500000  0.100000  0.000000     24.000000
 -0.400000  0.100000  0.000000     24.000000
 -0.300000  0.100000  0.000000     24.000000
 -0.200000  0.100000  0.000000     24.000000
 -0.100000  0.100000  0.000000     12.000000
  0.200000  0.200000  0.000000      6.000000
  0.300000  0.200000  0.000000     24.000000
  0.400000  0.200000  0.000000     24.000000
  0.500000  0.200000  0.000000     24.000000
 -0.400000  0.200000  0.000000     24.000000
 -0.300000  0.200000  0.000000     24.000000
 -0.200000  0.200000  0.000000     12.000000
  0.300000  0.300000  0.000000      6.000000
  0.400000  0.300000  0.000000     24.000000
  0.500000  0.300000  0.000000     24.000000
 -0.400000  0.300000  0.000000     24.000000
 -0.300000  0.300000  0.000000     12.000000
  0.400000  0.400000  0.000000      6.000000
  0.500000  0.400000  0.000000     24.000000
 -0.400000  0.400000  0.000000     12.000000
  0.500000  0.500000  0.000000      3.000000
  0.300000  0.200000  0.100000     24.000000
  0.400000  0.200000  0.100000     48.000000
  0.500000  0.200000  0.100000     48.000000
 -0.400000  0.200000  0.100000     24.000000
  0.400000  0.300000  0.100000     24.000000
  0.500000  0.300000  0.100000     48.000000
 -0.400000  0.300000  0.100000     48.000000
 -0.300000  0.300000  0.100000     48.000000
 -0.200000  0.300000  0.100000     24.000000
  0.500000  0.400000  0.100000     24.000000
 -0.400000  0.400000  0.100000     48.000000
 -0.300000  0.400000  0.100000     24.000000
 -0.400000  0.500000  0.100000     12.000000
 -0.400000  0.400000  0.200000     24.000000
 -0.300000  0.400000  0.200000     24.000000
 -0.300000  0.500000  0.200000     12.000000
 
 Following cartesian coordinates:
            Coordinates               Weight
  0.000000  0.000000  0.000000      1.000000
  0.029861 -0.010557  0.000000      8.000000
  0.059721 -0.021115  0.000000      8.000000
  0.089582 -0.031672  0.000000      8.000000
  0.119442 -0.042229  0.000000      8.000000
  0.149303 -0.052786  0.000000      4.000000
  0.029861  0.021115  0.000000      6.000000
  0.059721  0.010557  0.000000     24.000000
  0.089582  0.000000  0.000000     24.000000
  0.119442 -0.010557  0.000000     24.000000
  0.149303 -0.021115  0.000000     24.000000
 -0.119442  0.073901  0.000000     24.000000
 -0.089582  0.063344  0.000000     24.000000
 -0.059721  0.052787  0.000000     24.000000
 -0.029861  0.042229  0.000000     12.000000
  0.059721  0.042229  0.000000      6.000000
  0.089582  0.031672  0.000000     24.000000
  0.119442  0.021115  0.000000     24.000000
  0.149303  0.010557  0.000000     24.000000
 -0.119442  0.105573  0.000000     24.000000
 -0.089582  0.095016  0.000000     24.000000
 -0.059721  0.084458  0.000000     12.000000
  0.089582  0.063344  0.000000      6.000000
  0.119442  0.052787  0.000000     24.000000
  0.149303  0.042229  0.000000     24.000000
 -0.119442  0.137245  0.000000     24.000000
 -0.089582  0.126688  0.000000     12.000000
  0.119442  0.084458  0.000000      6.000000
  0.149303  0.073901  0.000000     24.000000
 -0.119442  0.168917  0.000000     12.000000
  0.149303  0.105573  0.000000      3.000000
  0.074651  0.021115  0.025860     24.000000
  0.104512  0.010557  0.025860     48.000000
  0.134373  0.000000  0.025860     48.000000
 -0.134373  0.095016  0.025860     24.000000
  0.104512  0.042229  0.025860     24.000000
  0.134373  0.031672  0.025860     48.000000
 -0.134373  0.126688  0.025860     48.000000
 -0.104512  0.116130  0.025860     48.000000
 -0.074651  0.105573  0.025860     24.000000
  0.134373  0.063344  0.025860     24.000000
 -0.134373  0.158360  0.025860     48.000000
 -0.104512  0.147802  0.025860     24.000000
 -0.134373  0.190031  0.025860     12.000000
 -0.149303  0.147802  0.051720     24.000000
 -0.119442  0.137245  0.051720     24.000000
 -0.119442  0.168917  0.051720     12.000000
 


--------------------------------------------------------------------------------------------------------




 Dimension of arrays:
   k-points           NKPTS =     47   k-points in BZ     NKDIM =     47   number of bands    NBANDS=      9
   number of dos      NEDOS =    301   number of ions     NIONS =      2
   non local maximal  LDIM  =      4   non local SUM 2l+1 LMDIM =      8
   total plane-waves  NPLWV =  46656
   max r-space proj   IRMAX =   6824   max aug-charges    IRDMAX=  38346
   dimension x,y,z NGX =    36 NGY =   36 NGZ =   36
   dimension x,y,z NGXF=    72 NGYF=   72 NGZF=   72
   support grid    NGXF=    72 NGYF=   72 NGZF=   72
   ions per type =               2
   NGX,Y,Z   is equivalent  to a cutoff of  15.48, 15.48, 15.48 a.u.
   NGXF,Y,Z  is equivalent  to a cutoff of  30.95, 30.95, 30.95 a.u.

 SYSTEM =  unknown system                          
 POSCAR =  Si2                                     

 Startparameter for this run:
   NWRITE =      2    write-flag & timer
   PREC   = accura    normal or accurate (medium, high low for compatibility)
   ISTART =      0    job   : 0-new  1-cont  2-samecut
   ICHARG =      2    charge: 1-file 2-atom 10-const
   ISPIN  =      2    spin polarized calculation?
   LNONCOLLINEAR =      F non collinear calculations
   LSORBIT =      F    spin-orbit coupling
   INIWAV =      1    electr: 0-lowe 1-rand  2-diag
   LASPH  =      T    aspherical Exc in radial PAW
 Electronic Relaxation 1
   ENCUT  =  680.0 eV  49.98 Ry    7.07 a.u.   8.22  8.22  8.22*2*pi/ulx,y,z
   ENINI  =  680.0     initial cutoff
   ENAUG  = 1360.0 eV  augmentation charge cutoff
   NELM   =    200;   NELMIN=  2; NELMDL= -5     # of ELM steps 
   EDIFF  = 0.1E-04   stopping-criterion for ELM
   LREAL  =      T    real-space projection
   NLSPLINE    = F    spline interpolate recip. space projectors
   LCOMPAT=      F    compatible to vasp.4.4
   GGA_COMPAT  = T    GGA compatible to vasp.4.4-vasp.4.6
   LMAXPAW     = -100 max onsite density
   LMAXMIX     =    2 max onsite mixed and CHGCAR
   VOSKOWN=      0    Vosko Wilk Nusair interpolation
   ROPT   =   -0.00025
 Ionic relaxation
   EDIFFG = -.2E-01   stopping-criterion for IOM
   NSW    =      1    number of steps for IOM
   NBLOCK =      1;   KBLOCK =      1    inner block; outer block 
   IBRION =      2    ionic relax: 0-MD 1-quasi-New 2-CG
   NFREE  =      1    steps in history (QN), initial steepest desc. (CG)
   ISIF   =      3    stress and relaxation
   IWAVPR =     11    prediction:  0-non 1-charg 2-wave 3-comb
   ISYM   =      2    0-nonsym 1-usesym 2-fastsym
   LCORR  =      T    Harris-Foulkes like correction to forces

   POTIM  = 0.5000    time-step for ionic-motion
   TEIN   =    0.0    initial temperature
   TEBEG  =    0.0;   TEEND  =   0.0 temperature during run
   SMASS  =  -3.00    Nose mass-parameter (am)
   estimated Nose-frequenzy (Omega)   =  0.10E-29 period in steps = 0.13E+47 mass=  -0.342E-27a.u.
   SCALEE = 1.0000    scale energy and forces
   NPACO  =    256;   APACO  = 16.0  distance and # of slots for P.C.
   PSTRESS=    0.0 pullay stress

  Mass of Ions in am
   POMASS =  28.09
  Ionic Valenz
   ZVAL   =   4.00
  Atomic Wigner-Seitz radii
   RWIGS  =  -1.00
  virtual crystal weights 
   VCA    =   1.00
   NELECT =       8.0000    total number of electrons
   NUPDOWN=      -1.0000    fix difference up-down

 DOS related values:
   EMIN   =  10.00;   EMAX   =-10.00  energy-range for DOS
   EFERMI =   0.00
   ISMEAR =    -5;   SIGMA  =   0.20  broadening in eV -4-tet -1-fermi 0-gaus

 Electronic relaxation 2 (details)
   IALGO  =     38    algorithm
   LDIAG  =      T    sub-space diagonalisation (order eigenvalues)
   LSUBROT=      F    optimize rotation matrix (better conditioning)
   TURBO    =      0    0=normal 1=particle mesh
   IRESTART =      0    0=no restart 2=restart with 2 vectors
   NREBOOT  =      0    no. of reboots
   NMIN     =      0    reboot dimension
   EREF     =   0.00    reference energy to select bands
   IMIX   =      4    mixing-type and parameters
     AMIX     =   0.40;   BMIX     =  1.00
     AMIX_MAG =   1.60;   BMIX_MAG =  1.00
     AMIN     =   0.10
     WC   =   100.;   INIMIX=   1;  MIXPRE=   1;  MAXMIX= -45

 Intra band minimization:
   WEIMIN = 0.0010     energy-eigenvalue tresh-hold
   EBREAK =  0.28E-06  absolut break condition
   DEPER  =   0.30     relativ break condition  

   TIME   =   0.40     timestep for ELM

  volume/ion in A,a.u.               =      20.44       137.96
  Fermi-wavevector in a.u.,A,eV,Ry     =   0.950397  1.795990 12.289528  0.903255
  Thomas-Fermi vector in A             =   2.078770
 
 Write flags
   LWAVE        =      F    write WAVECAR
   LDOWNSAMPLE  =      F    k-point downsampling of WAVECAR
   LCHARG       =      T    write CHGCAR
   LVTOT        =      T    write LOCPOT, total local potential
   LVHAR        =      F    write LOCPOT, Hartree potential only
   LELF         =      T    write electronic localiz. function (ELF)
   LORBIT       =     11    0 simple, 1 ext, 2 COOP (PROOUT), +10 PAW based schemes


 Dipole corrections
   LMONO  =      F    monopole corrections only (constant potential shift)
   LDIPOL =      F    correct potential (dipole corrections)
   IDIPOL =      0    1-x, 2-y, 3-z, 4-all directions 
   EPSILON=  1.0000000 bulk dielectric constant

 Exchange correlation treatment:
   GGA     =    --    GGA type
   LEXCH   =     8    internal setting for exchange type
   VOSKOWN=      0    Vosko Wilk Nusair interpolation
   LHFCALC =     F    Hartree Fock is set to
   LHFONE  =     F    Hartree Fock one center treatment
   AEXX    =    0.0000 exact exchange contribution

 Linear response parameters
   LEPSILON=     F    determine dielectric tensor
   LRPA    =     F    only Hartree local field effects (RPA)
   LNABLA  =     F    use nabla operator in PAW spheres
   LVEL    =     F    velocity operator in full k-point grid
   LINTERFAST=   F  fast interpolation
   KINTER  =     0    interpolate to denser k-point grid
   CSHIFT  =0.1000    complex shift for real part using Kramers Kronig
   OMEGAMAX=  -1.0    maximum frequency
   DEG_THRESHOLD= 0.2000000E-02 threshold for treating states as degnerate
   RTIME   =   -0.100 relaxation time in fs
  (WPLASMAI=    0.000 imaginary part of plasma frequency in eV, 0.658/RTIME)
   DFIELD  = 0.0000000 0.0000000 0.0000000 field for delta impulse in time
 
 Orbital magnetization related:
   ORBITALMAG=     F  switch on orbital magnetization
   LCHIMAG   =     F  perturbation theory with respect to B field
   DQ        =  0.001000  dq finite difference perturbation B field
   LLRAUG    =     F  two centre corrections for induced B field



--------------------------------------------------------------------------------------------------------


 conjugate gradient relaxation of ions
 charge density and potential will be updated during run
 spin polarized calculation
 Variant of blocked Davidson
 Davidson routine will perform the subspace rotation
 perform sub-space diagonalisation
    after iterative eigenvector-optimisation
 modified Broyden-mixing scheme, WC =      100.0
 initial mixing is a Kerker type mixing with AMIX =  0.4000 and BMIX =      1.0000
 Hartree-type preconditioning will be used
 using additional bands            5
 real space projection scheme for non local part
 use partial core corrections
 calculate Harris-corrections to forces 
   (improved forces if not selfconsistent)
 use gradient corrections 
 use of overlap-Matrix (Vanderbilt PP)
 Fermi weights with tetrahedron method with Bloechl corrections


--------------------------------------------------------------------------------------------------------


  energy-cutoff  :      680.00
  volume of cell :       40.89
      direct lattice vectors                 reciprocal lattice vectors
     3.348898000  0.000000000  1.933487000     0.298605691 -0.105573000  0.000000000
     1.116299000  3.157372000  1.933487000     0.000000000  0.316719094  0.000000000
     0.000000000  0.000000000  3.866975000    -0.149302807 -0.105573020  0.258600069

  length of vectors
     3.866974243  3.866974707  3.866975000     0.316719145  0.316719094  0.316719096


 
 k-points in units of 2pi/SCALE and weight: read from INCAR                         
   0.00000000  0.00000000  0.00000000       0.001
   0.02986057 -0.01055730  0.00000000       0.008
   0.05972114 -0.02111460  0.00000000       0.008
   0.08958171 -0.03167190  0.00000000       0.008
   0.11944228 -0.04222920  0.00000000       0.008
   0.14930285 -0.05278650  0.00000000       0.004
   0.02986057  0.02111461  0.00000000       0.006
   0.05972114  0.01055731  0.00000000       0.024
   0.08958171  0.00000001  0.00000000       0.024
   0.11944228 -0.01055729  0.00000000       0.024
   0.14930285 -0.02111459  0.00000000       0.024
  -0.11944228  0.07390111  0.00000000       0.024
  -0.08958171  0.06334381  0.00000000       0.024
  -0.05972114  0.05278651  0.00000000       0.024
  -0.02986057  0.04222921  0.00000000       0.012
   0.05972114  0.04222922  0.00000000       0.006
   0.08958171  0.03167192  0.00000000       0.024
   0.11944228  0.02111462  0.00000000       0.024
   0.14930285  0.01055732  0.00000000       0.024
  -0.11944228  0.10557302  0.00000000       0.024
  -0.08958171  0.09501572  0.00000000       0.024
  -0.05972114  0.08445842  0.00000000       0.012
   0.08958171  0.06334383  0.00000000       0.006
   0.11944228  0.05278653  0.00000000       0.024
   0.14930285  0.04222923  0.00000000       0.024
  -0.11944228  0.13724493  0.00000000       0.024
  -0.08958171  0.12668763  0.00000000       0.012
   0.11944228  0.08445844  0.00000000       0.006
   0.14930285  0.07390114  0.00000000       0.024
  -0.11944228  0.16891684  0.00000000       0.012
   0.14930285  0.10557305  0.00000000       0.003
   0.07465143  0.02111462  0.02586001       0.024
   0.10451200  0.01055732  0.02586001       0.048
   0.13437256  0.00000002  0.02586001       0.048
  -0.13437256  0.09501572  0.02586001       0.024
   0.10451200  0.04222923  0.02586001       0.024
   0.13437256  0.03167193  0.02586001       0.048
  -0.13437256  0.12668763  0.02586001       0.048
  -0.10451199  0.11613033  0.02586001       0.048
  -0.07465142  0.10557303  0.02586001       0.024
   0.13437256  0.06334384  0.02586001       0.024
  -0.13437256  0.15835954  0.02586001       0.048
  -0.10451199  0.14780224  0.02586001       0.024
  -0.13437256  0.19003145  0.02586001       0.012
  -0.14930284  0.14780223  0.05172001       0.024
  -0.11944227  0.13724493  0.05172001       0.024
  -0.11944227  0.16891684  0.05172001       0.012
 
 k-points in reciprocal lattice and weights: read from INCAR                         
   0.00000000  0.00000000  0.00000000       0.001
   0.10000000  0.00000000  0.00000000       0.008
   0.20000000  0.00000000  0.00000000       0.008
   0.30000000 -0.00000000  0.00000000       0.008
   0.40000000  0.00000000  0.00000000       0.008
   0.50000000  0.00000000  0.00000000       0.004
   0.10000000  0.10000000  0.00000000       0.006
   0.20000000  0.10000000  0.00000000       0.024
   0.30000000  0.10000000  0.00000000       0.024
   0.40000000  0.10000000  0.00000000       0.024
   0.50000000  0.10000000  0.00000000       0.024
  -0.40000000  0.10000000  0.00000000       0.024
  -0.30000000  0.10000000  0.00000000       0.024
  -0.20000000  0.10000000  0.00000000       0.024
  -0.10000000  0.10000000  0.00000000       0.012
   0.20000000  0.20000000  0.00000000       0.006
   0.30000000  0.20000000  0.00000000       0.024
   0.40000000  0.20000000  0.00000000       0.024
   0.50000000  0.20000000  0.00000000       0.024
  -0.40000000  0.20000000  0.00000000       0.024
  -0.30000000  0.20000000  0.00000000       0.024
  -0.20000000  0.20000000  0.00000000       0.012
   0.30000000  0.30000000  0.00000000       0.006
   0.40000000  0.30000000  0.00000000       0.024
   0.50000000  0.30000000  0.00000000       0.024
  -0.40000000  0.30000000  0.00000000       0.024
  -0.30000000  0.30000000  0.00000000       0.012
   0.40000000  0.40000000  0.00000000       0.006
   0.50000000  0.40000000  0.00000000       0.024
  -0.40000000  0.40000000  0.00000000       0.012
   0.50000000  0.50000000  0.00000000       0.003
   0.30000000  0.20000000  0.10000000       0.024
   0.40000000  0.20000000  0.10000000       0.048
   0.50000000  0.20000000  0.10000000       0.048
  -0.40000000  0.20000000  0.10000000       0.024
   0.40000000  0.30000000  0.10000000       0.024
   0.50000000  0.30000000  0.10000000       0.048
  -0.40000000  0.30000000  0.10000000       0.048
  -0.30000000  0.30000000  0.10000000       0.048
  -0.20000000  0.30000000  0.10000000       0.024
   0.50000000  0.40000000  0.10000000       0.024
  -0.40000000  0.40000000  0.10000000       0.048
  -0.30000000  0.40000000  0.10000000       0.024
  -0.40000000  0.50000000  0.10000000       0.012
  -0.40000000  0.40000000  0.20000000       0.024
  -0.30000000  0.40000000  0.20000000       0.024
  -0.30000000  0.50000000  0.20000000       0.012
 
 position of ions in fractional coordinates (direct lattice) 
   0.25000000  0.25000000  0.25000000
   0.00000000  0.00000000  0.00000000
 
 position of ions in cartesian coordinates  (Angst):
   1.11629925  0.78934300  1.93348725
   0.00000000  0.00000000  0.00000000
 


--------------------------------------------------------------------------------------------------------


 k-point   1 :   0.0000 0.0000 0.0000  plane waves:    1639
 k-point   2 :   0.1000 0.0000 0.0000  plane waves:    1648
 k-point   3 :   0.2000 0.0000 0.0000  plane waves:    1654
 k-point   4 :   0.3000-0.0000 0.0000  plane waves:    1637
 k-point   5 :   0.4000 0.0000 0.0000  plane waves:    1646
 k-point   6 :   0.5000 0.0000 0.0000  plane waves:    1676
 k-point   7 :   0.1000 0.1000 0.0000  plane waves:    1643
 k-point   8 :   0.2000 0.1000 0.0000  plane waves:    1647
 k-point   9 :   0.3000 0.1000 0.0000  plane waves:    1636
 k-point  10 :   0.4000 0.1000 0.0000  plane waves:    1639
 k-point  11 :   0.5000 0.1000 0.0000  plane waves:    1653
 k-point  12 :  -0.4000 0.1000 0.0000  plane waves:    1648
 k-point  13 :  -0.3000 0.1000 0.0000  plane waves:    1644
 k-point  14 :  -0.2000 0.1000 0.0000  plane waves:    1645
 k-point  15 :  -0.1000 0.1000 0.0000  plane waves:    1649
 k-point  16 :   0.2000 0.2000 0.0000  plane waves:    1640
 k-point  17 :   0.3000 0.2000 0.0000  plane waves:    1647
 k-point  18 :   0.4000 0.2000 0.0000  plane waves:    1644
 k-point  19 :   0.5000 0.2000 0.0000  plane waves:    1645
 k-point  20 :  -0.4000 0.2000 0.0000  plane waves:    1645
 k-point  21 :  -0.3000 0.2000 0.0000  plane waves:    1645
 k-point  22 :  -0.2000 0.2000 0.0000  plane waves:    1652
 k-point  23 :   0.3000 0.3000 0.0000  plane waves:    1652
 k-point  24 :   0.4000 0.3000 0.0000  plane waves:    1649
 k-point  25 :   0.5000 0.3000 0.0000  plane waves:    1649
 k-point  26 :  -0.4000 0.3000 0.0000  plane waves:    1652
 k-point  27 :  -0.3000 0.3000 0.0000  plane waves:    1642
 k-point  28 :   0.4000 0.4000 0.0000  plane waves:    1652
 k-point  29 :   0.5000 0.4000 0.0000  plane waves:    1646
 k-point  30 :  -0.4000 0.4000 0.0000  plane waves:    1650
 k-point  31 :   0.5000 0.5000 0.0000  plane waves:    1660
 k-point  32 :   0.3000 0.2000 0.1000  plane waves:    1648
 k-point  33 :   0.4000 0.2000 0.1000  plane waves:    1646
 k-point  34 :   0.5000 0.2000 0.1000  plane waves:    1643
 k-point  35 :  -0.4000 0.2000 0.1000  plane waves:    1642
 k-point  36 :   0.4000 0.3000 0.1000  plane waves:    1651
 k-point  37 :   0.5000 0.3000 0.1000  plane waves:    1650
 k-point  38 :  -0.4000 0.3000 0.1000  plane waves:    1643
 k-point  39 :  -0.3000 0.3000 0.1000  plane waves:    1647
 k-point  40 :  -0.2000 0.3000 0.1000  plane waves:    1646
 k-point  41 :   0.5000 0.4000 0.1000  plane waves:    1658
 k-point  42 :  -0.4000 0.4000 0.1000  plane waves:    1647
 k-point  43 :  -0.3000 0.4000 0.1000  plane waves:    1649
 k-point  44 :  -0.4000 0.5000 0.1000  plane waves:    1644
 k-point  45 :  -0.4000 0.4000 0.2000  plane waves:    1649
 k-point  46 :  -0.3000 0.4000 0.2000  plane waves:    1642
 k-point  47 :  -0.3000 0.5000 0.2000  plane waves:    1640

 maximum and minimum number of plane-waves per node :       433      391

 maximum number of plane-waves:      1676
 maximum index in each direction: 
   IXMAX=    8   IYMAX=    8   IZMAX=    8
   IXMIN=   -8   IYMIN=   -8   IZMIN=   -8


 real space projection operators:
  total allocation   :        825.38 KBytes
  max/ min on nodes  :        207.81        204.88


 parallel 3D FFT for wavefunctions:
    minimum data exchange during FFTs selected (reduces bandwidth)
 parallel 3D FFT for charge:
    minimum data exchange during FFTs selected (reduces bandwidth)


 total amount of memory used by VASP MPI-rank0    47683. kBytes
=======================================================================

   base      :      30000. kBytes
   nonlr-proj:        483. kBytes
   fftplans  :       3553. kBytes
   grid      :       7807. kBytes
   one-center:          6. kBytes
   wavefun   :       5834. kBytes
 
     INWAV:  cpu time    0.0000: real time    0.0000
 Broyden mixing: mesh for mixing (old mesh)
   NGX = 17   NGY = 17   NGZ = 17
  (NGX  = 72   NGY  = 72   NGZ  = 72)
  gives a total of   4913 points

 initial charge density was supplied:
 charge density of overlapping atoms calculated
 number of electron       8.0000000 magnetization       1.2000000
 keeping initial charge density in first step


--------------------------------------------------------------------------------------------------------


 Maximum index for non-local projection operator         1667
 Maximum index for augmentation-charges         9303 (set IRDMAX)


--------------------------------------------------------------------------------------------------------


 First call to EWALD:  gamma=   0.514
 Maximum number of real-space cells 3x 3x 3
 Maximum number of reciprocal cells 3x 3x 3

    FEWALD:  cpu time    0.0012: real time    0.0020


--------------------------------------- Iteration      1(   1)  ---------------------------------------


    POTLOK:  cpu time    0.0902: real time    0.0929
    SETDIJ:  cpu time    0.1426: real time    0.1449
     EDDAV:  cpu time    2.1778: real time    2.3208
 BZINTS: Fermi energy:   10.120496;    8.000000 electrons
         Band energy: 0.217251E+02;  BLOECHL correction:   -0.173378
       DOS:  cpu time    0.0065: real time    0.0073
    --------------------------------------------
      LOOP:  cpu time    2.4171: real time    2.5660

 eigenvalue-minimisations  :  1692
 total energy-change (2. order) : 0.9468664E+01  (-0.3462924E+03)
 number of electron       8.0000000 magnetization       1.2000000
 augmentation part        8.0000000 magnetization       1.2000000

 Free energy of the ion-electron system (eV)
  ---------------------------------------------------
  alpha Z        PSCENC =         3.29317992
  Ewald energy   TEWEN  =      -226.94489173
  -Hartree energ DENC   =       -11.32339116
  -exchange      EXHF   =         0.00000000
  -V(xc)+E(xc)   XCENC  =       -18.60569953
  PAW double counting   =       176.18363791     -140.99252705
  entropy T*S    EENTRO =         0.00000000
  eigenvalues    EBANDS =        21.72513423
  atomic energy  EATOM  =       206.13322186
  Solvation  Ediel_sol  =         0.00000000
  ---------------------------------------------------
  free energy    TOTEN  =         9.46866445 eV

  energy without entropy =        9.46866445  energy(sigma->0) =        9.46866445


--------------------------------------------------------------------------------------------------------




--------------------------------------- Iteration      1(   2)  ---------------------------------------


     EDDAV:  cpu time    2.1965: real time    2.2051
 BZINTS: Fermi energy:    5.890216;    8.000000 electrons
         Band energy: 0.188293E+01;  BLOECHL correction:   -0.000893
       DOS:  cpu time    0.0040: real time    0.0040
    --------------------------------------------
      LOOP:  cpu time    2.2005: real time    2.2091

 eigenvalue-minimisations  :  2453
 total energy-change (2. order) :-0.1984220E+02  (-0.1943950E+02)
 number of electron       8.0000000 magnetization       1.2000000
 augmentation part        8.0000000 magnetization       1.2000000

 Free energy of the ion-electron system (eV)
  ---------------------------------------------------
  alpha Z        PSCENC =         3.29317992
  Ewald energy   TEWEN  =      -226.94489173
  -Hartree energ DENC   =       -11.32339116
  -exchange      EXHF   =         0.00000000
  -V(xc)+E(xc)   XCENC  =       -18.60569953
  PAW double counting   =       176.18363791     -140.99252705
  entropy T*S    EENTRO =         0.00000000
  eigenvalues    EBANDS =         1.88293031
  atomic energy  EATOM  =       206.13322186
  Solvation  Ediel_sol  =         0.00000000
  ---------------------------------------------------
  free energy    TOTEN  =       -10.37353947 eV

  energy without entropy =      -10.37353947  energy(sigma->0) =      -10.37353947


--------------------------------------------------------------------------------------------------------




--------------------------------------- Iteration      1(   3)  ---------------------------------------


     EDDAV:  cpu time    2.2224: real time    2.2911
 BZINTS: Fermi energy:    5.706150;    8.000000 electrons
         Band energy: 0.142727E+01;  BLOECHL correction:   -0.000000
       DOS:  cpu time    0.0023: real time    0.0023
    --------------------------------------------
      LOOP:  cpu time    2.2247: real time    2.2935

 eigenvalue-minimisations  :  2067
 total energy-change (2. order) :-0.4556582E+00  (-0.4545699E+00)
 number of electron       8.0000000 magnetization       1.2000000
 augmentation part        8.0000000 magnetization       1.2000000

 Free energy of the ion-electron system (eV)
  ---------------------------------------------------
  alpha Z        PSCENC =         3.29317992
  Ewald energy   TEWEN  =      -226.94489173
  -Hartree energ DENC   =       -11.32339116
  -exchange      EXHF   =         0.00000000
  -V(xc)+E(xc)   XCENC  =       -18.60569953
  PAW double counting   =       176.18363791     -140.99252705
  entropy T*S    EENTRO =         0.00000000
  eigenvalues    EBANDS =         1.42727215
  atomic energy  EATOM  =       206.13322186
  Solvation  Ediel_sol  =         0.00000000
  ---------------------------------------------------
  free energy    TOTEN  =       -10.82919764 eV

  energy without entropy =      -10.82919764  energy(sigma->0) =      -10.82919764


--------------------------------------------------------------------------------------------------------




--------------------------------------- Iteration      1(   4)  ---------------------------------------


     EDDAV:  cpu time    2.5097: real time    2.5345
 BZINTS: Fermi energy:    5.705281;    8.000000 electrons
         Band energy: 0.142396E+01;  BLOECHL correction:    0.000000
       DOS:  cpu time    0.0029: real time    0.0029
    --------------------------------------------
      LOOP:  cpu time    2.5126: real time    2.5374

 eigenvalue-minimisations  :  2537
 total energy-change (2. order) :-0.3316229E-02  (-0.3315799E-02)
 number of electron       8.0000000 magnetization       1.2000000
 augmentation part        8.0000000 magnetization       1.2000000

 Free energy of the ion-electron system (eV)
  ---------------------------------------------------
  alpha Z        PSCENC =         3.29317992
  Ewald energy   TEWEN  =      -226.94489173
  -Hartree energ DENC   =       -11.32339116
  -exchange      EXHF   =         0.00000000
  -V(xc)+E(xc)   XCENC  =       -18.60569953
  PAW double counting   =       176.18363791     -140.99252705
  entropy T*S    EENTRO =         0.00000000
  eigenvalues    EBANDS =         1.42395592
  atomic energy  EATOM  =       206.13322186
  Solvation  Ediel_sol  =         0.00000000
  ---------------------------------------------------
  free energy    TOTEN  =       -10.83251387 eV

  energy without entropy =      -10.83251387  energy(sigma->0) =      -10.83251387


--------------------------------------------------------------------------------------------------------




--------------------------------------- Iteration      1(   5)  ---------------------------------------


     EDDAV:  cpu time    2.3151: real time    2.3268
 BZINTS: Fermi energy:    5.705352;    8.000000 electrons
         Band energy: 0.142394E+01;  BLOECHL correction:    0.000000
       DOS:  cpu time    0.0022: real time    0.0022
    CHARGE:  cpu time    0.0745: real time    0.0772
    MIXING:  cpu time    0.0034: real time    0.0041
    --------------------------------------------
      LOOP:  cpu time    2.3952: real time    2.4104

 eigenvalue-minimisations  :  2197
 total energy-change (2. order) :-0.1385433E-04  (-0.1385417E-04)
 number of electron       8.0000000 magnetization      -0.3329125
 augmentation part       -0.4701147 magnetization      -0.3295178

 Broyden mixing:
  rms(total) = 0.52227E+00    rms(broyden)= 0.52227E+00
  rms(prec ) = 0.95581E+00
  weight for this iteration     100.00

 Free energy of the ion-electron system (eV)
  ---------------------------------------------------
  alpha Z        PSCENC =         3.29317992
  Ewald energy   TEWEN  =      -226.94489173
  -Hartree energ DENC   =       -11.32339116
  -exchange      EXHF   =         0.00000000
  -V(xc)+E(xc)   XCENC  =       -18.60569953
  PAW double counting   =       176.18363791     -140.99252705
  entropy T*S    EENTRO =         0.00000000
  eigenvalues    EBANDS =         1.42394206
  atomic energy  EATOM  =       206.13322186
  Solvation  Ediel_sol  =         0.00000000
  ---------------------------------------------------
  free energy    TOTEN  =       -10.83252772 eV

  energy without entropy =      -10.83252772  energy(sigma->0) =      -10.83252772


--------------------------------------------------------------------------------------------------------




--------------------------------------- Iteration      1(   6)  ---------------------------------------


    POTLOK:  cpu time    0.0994: real time    0.1011
    SETDIJ:  cpu time    0.1798: real time    0.1809
     EDDAV:  cpu time    1.6556: real time    1.6664
 BZINTS: Fermi energy:    5.973492;    8.000000 electrons
         Band energy: 0.278092E+01;  BLOECHL correction:   -0.000000
       DOS:  cpu time    0.0019: real time    0.0019
    CHARGE:  cpu time    0.0874: real time    0.0878
    MIXING:  cpu time    0.0042: real time    0.0042
    --------------------------------------------
      LOOP:  cpu time    2.0283: real time    2.0423

 eigenvalue-minimisations  :  1888
 total energy-change (2. order) :-0.5825493E-01  (-0.9053634E-02)
 number of electron       8.0000000 magnetization       0.4259304
 augmentation part       -0.4640369 magnetization       0.4254813

 Broyden mixing:
  rms(total) = 0.30567E+00    rms(broyden)= 0.30567E+00
  rms(prec ) = 0.56271E+00
  weight for this iteration     100.00

 eigenvalues of (default mixing * dielectric matrix)
  average eigenvalue GAMMA=   0.8910
  0.8910

 Free energy of the ion-electron system (eV)
  ---------------------------------------------------
  alpha Z        PSCENC =         3.29317992
  Ewald energy   TEWEN  =      -226.94489173
  -Hartree energ DENC   =       -12.79013295
  -exchange      EXHF   =         0.00000000
  -V(xc)+E(xc)   XCENC  =       -18.44863559
  PAW double counting   =       369.75703364     -334.67147543
  entropy T*S    EENTRO =         0.00000000
  eigenvalues    EBANDS =         2.78091764
  atomic energy  EATOM  =       206.13322186
  Solvation  Ediel_sol  =         0.00000000
  ---------------------------------------------------
  free energy    TOTEN  =       -10.89078265 eV

  energy without entropy =      -10.89078265  energy(sigma->0) =      -10.89078265


--------------------------------------------------------------------------------------------------------




--------------------------------------- Iteration      1(   7)  ---------------------------------------


    POTLOK:  cpu time    0.1201: real time    0.1220
    SETDIJ:  cpu time    0.2079: real time    0.2246
     EDDAV:  cpu time    1.7709: real time    1.7854
 BZINTS: Fermi energy:    6.049938;    8.000000 electrons
         Band energy: 0.435397E+01;  BLOECHL correction:    0.000000
       DOS:  cpu time    0.0019: real time    0.0019
    CHARGE:  cpu time    0.0585: real time    0.0586
    MIXING:  cpu time    0.0034: real time    0.0041
    --------------------------------------------
      LOOP:  cpu time    2.1627: real time    2.1966

 eigenvalue-minimisations  :  2021
 total energy-change (2. order) : 0.5704857E-01  (-0.8677097E-02)
 number of electron       8.0000000 magnetization       0.1007751
 augmentation part       -0.4592414 magnetization       0.1015082

 Broyden mixing:
  rms(total) = 0.19888E+00    rms(broyden)= 0.19888E+00
  rms(prec ) = 0.23791E+00
  weight for this iteration     100.00

 eigenvalues of (default mixing * dielectric matrix)
  average eigenvalue GAMMA=   1.1890
  1.7305  0.6474

 Free energy of the ion-electron system (eV)
  ---------------------------------------------------
  alpha Z        PSCENC =         3.29317992
  Ewald energy   TEWEN  =      -226.94489173
  -Hartree energ DENC   =       -14.49738745
  -exchange      EXHF   =         0.00000000
  -V(xc)+E(xc)   XCENC  =       -18.16729566
  PAW double counting   =       684.61426158     -649.61879504
  entropy T*S    EENTRO =         0.00000000
  eigenvalues    EBANDS =         4.35397244
  atomic energy  EATOM  =       206.13322186
  Solvation  Ediel_sol  =         0.00000000
  ---------------------------------------------------
  free energy    TOTEN  =       -10.83373409 eV

  energy without entropy =      -10.83373409  energy(sigma->0) =      -10.83373409


--------------------------------------------------------------------------------------------------------




--------------------------------------- Iteration      1(   8)  ---------------------------------------


    POTLOK:  cpu time    0.0878: real time    0.0880
    SETDIJ:  cpu time    0.1506: real time    0.1513
     EDDAV:  cpu time    1.7891: real time    1.8557
 BZINTS: Fermi energy:    6.181491;    8.000000 electrons
         Band energy: 0.489167E+01;  BLOECHL correction:   -0.000000
       DOS:  cpu time    0.0019: real time    0.0019
    CHARGE:  cpu time    0.0625: real time    0.0628
    MIXING:  cpu time    0.0028: real time    0.0028
    --------------------------------------------
      LOOP:  cpu time    2.0947: real time    2.1625

 eigenvalue-minimisations  :  2050
 total energy-change (2. order) :-0.1427626E-01  (-0.1330251E-02)
 number of electron       8.0000000 magnetization      -0.0058679
 augmentation part       -0.4577718 magnetization      -0.0057511

 Broyden mixing:
  rms(total) = 0.45799E-01    rms(broyden)= 0.45799E-01
  rms(prec ) = 0.54332E-01
  weight for this iteration     100.00

 eigenvalues of (default mixing * dielectric matrix)
  average eigenvalue GAMMA=   1.3002
  2.5061  0.7828  0.6118

 Free energy of the ion-electron system (eV)
  ---------------------------------------------------
  alpha Z        PSCENC =         3.29317992
  Ewald energy   TEWEN  =      -226.94489173
  -Hartree energ DENC   =       -15.10552470
  -exchange      EXHF   =         0.00000000
  -V(xc)+E(xc)   XCENC  =       -18.07964330
  PAW double counting   =       818.35116819     -783.38719046
  entropy T*S    EENTRO =         0.00000000
  eigenvalues    EBANDS =         4.89166988
  atomic energy  EATOM  =       206.13322186
  Solvation  Ediel_sol  =         0.00000000
  ---------------------------------------------------
  free energy    TOTEN  =       -10.84801034 eV

  energy without entropy =      -10.84801034  energy(sigma->0) =      -10.84801034


--------------------------------------------------------------------------------------------------------




--------------------------------------- Iteration      1(   9)  ---------------------------------------


    POTLOK:  cpu time    0.1022: real time    0.1028
    SETDIJ:  cpu time    0.1602: real time    0.1607
     EDDAV:  cpu time    1.9458: real time    1.9526
 BZINTS: Fermi energy:    6.221173;    8.000000 electrons
         Band energy: 0.492863E+01;  BLOECHL correction:    0.000000
       DOS:  cpu time    0.0023: real time    0.0023
    CHARGE:  cpu time    0.0603: real time    0.0605
    MIXING:  cpu time    0.0032: real time    0.0032
    --------------------------------------------
      LOOP:  cpu time    2.2740: real time    2.2820

 eigenvalue-minimisations  :  2129
 total energy-change (2. order) :-0.1849872E-02  (-0.8813493E-04)
 number of electron       8.0000000 magnetization      -0.0012873
 augmentation part       -0.4578987 magnetization      -0.0012424

 Broyden mixing:
  rms(total) = 0.95157E-02    rms(broyden)= 0.95157E-02
  rms(prec ) = 0.21395E-01
  weight for this iteration     100.00

 eigenvalues of (default mixing * dielectric matrix)
  average eigenvalue GAMMA=   1.3259
  2.4215  1.4915  0.7763  0.6144

 Free energy of the ion-electron system (eV)
  ---------------------------------------------------
  alpha Z        PSCENC =         3.29317992
  Ewald energy   TEWEN  =      -226.94489173
  -Hartree energ DENC   =       -15.15941521
  -exchange      EXHF   =         0.00000000
  -V(xc)+E(xc)   XCENC  =       -18.06834893
  PAW double counting   =       834.74514617     -799.77738508
  entropy T*S    EENTRO =         0.00000000
  eigenvalues    EBANDS =         4.92863280
  atomic energy  EATOM  =       206.13322186
  Solvation  Ediel_sol  =         0.00000000
  ---------------------------------------------------
  free energy    TOTEN  =       -10.84986022 eV

  energy without entropy =      -10.84986022  energy(sigma->0) =      -10.84986022


--------------------------------------------------------------------------------------------------------




--------------------------------------- Iteration      1(  10)  ---------------------------------------


    POTLOK:  cpu time    0.1028: real time    0.1033
    SETDIJ:  cpu time    0.1598: real time    0.1626
     EDDAV:  cpu time    1.7269: real time    1.7338
 BZINTS: Fermi energy:    6.227455;    8.000000 electrons
         Band energy: 0.489819E+01;  BLOECHL correction:   -0.000000
       DOS:  cpu time    0.0032: real time    0.0032
    CHARGE:  cpu time    0.0612: real time    0.0614
    MIXING:  cpu time    0.0029: real time    0.0032
    --------------------------------------------
      LOOP:  cpu time    2.0568: real time    2.0675

 eigenvalue-minimisations  :  1870
 total energy-change (2. order) :-0.4291708E-03  (-0.8453429E-04)
 number of electron       8.0000000 magnetization       0.0016330
 augmentation part       -0.4583028 magnetization       0.0015989

 Broyden mixing:
  rms(total) = 0.40025E-02    rms(broyden)= 0.40025E-02
  rms(prec ) = 0.64958E-02
  weight for this iteration     100.00

 eigenvalues of (default mixing * dielectric matrix)
  average eigenvalue GAMMA=   1.3531
  2.2814  2.2814  0.8225  0.7622  0.6181

 Free energy of the ion-electron system (eV)
  ---------------------------------------------------
  alpha Z        PSCENC =         3.29317992
  Ewald energy   TEWEN  =      -226.94489173
  -Hartree energ DENC   =       -15.14550725
  -exchange      EXHF   =         0.00000000
  -V(xc)+E(xc)   XCENC  =       -18.06518635
  PAW double counting   =       834.94595958     -799.96525572
  entropy T*S    EENTRO =         0.00000000
  eigenvalues    EBANDS =         4.89819031
  atomic energy  EATOM  =       206.13322186
  Solvation  Ediel_sol  =         0.00000000
  ---------------------------------------------------
  free energy    TOTEN  =       -10.85028939 eV

  energy without entropy =      -10.85028939  energy(sigma->0) =      -10.85028939


--------------------------------------------------------------------------------------------------------




--------------------------------------- Iteration      1(  11)  ---------------------------------------


    POTLOK:  cpu time    0.1011: real time    0.1018
    SETDIJ:  cpu time    0.1593: real time    0.1598
     EDDAV:  cpu time    1.8937: real time    1.9008
 BZINTS: Fermi energy:    6.231085;    8.000000 electrons
         Band energy: 0.491117E+01;  BLOECHL correction:    0.000000
       DOS:  cpu time    0.0023: real time    0.0023
    CHARGE:  cpu time    0.0822: real time    0.0825
    MIXING:  cpu time    0.0036: real time    0.0038
    --------------------------------------------
      LOOP:  cpu time    2.2422: real time    2.2510

 eigenvalue-minimisations  :  2033
 total energy-change (2. order) :-0.6237530E-04  (-0.1515464E-04)
 number of electron       8.0000000 magnetization       0.0003196
 augmentation part       -0.4583290 magnetization       0.0003215

 Broyden mixing:
  rms(total) = 0.29844E-02    rms(broyden)= 0.29844E-02
  rms(prec ) = 0.37187E-02
  weight for this iteration     100.00

 eigenvalues of (default mixing * dielectric matrix)
  average eigenvalue GAMMA=   1.4202
  2.4682  2.4682  1.4818  0.7750  0.7054  0.6224

 Free energy of the ion-electron system (eV)
  ---------------------------------------------------
  alpha Z        PSCENC =         3.29317992
  Ewald energy   TEWEN  =      -226.94489173
  -Hartree energ DENC   =       -15.16197461
  -exchange      EXHF   =         0.00000000
  -V(xc)+E(xc)   XCENC  =       -18.06244505
  PAW double counting   =       833.35144595     -798.37006273
  entropy T*S    EENTRO =         0.00000000
  eigenvalues    EBANDS =         4.91117464
  atomic energy  EATOM  =       206.13322186
  Solvation  Ediel_sol  =         0.00000000
  ---------------------------------------------------
  free energy    TOTEN  =       -10.85035176 eV

  energy without entropy =      -10.85035176  energy(sigma->0) =      -10.85035176


--------------------------------------------------------------------------------------------------------




--------------------------------------- Iteration      1(  12)  ---------------------------------------


    POTLOK:  cpu time    0.1053: real time    0.1055
    SETDIJ:  cpu time    0.1621: real time    0.1626
     EDDAV:  cpu time    1.6493: real time    1.6569
 BZINTS: Fermi energy:    6.232295;    8.000000 electrons
         Band energy: 0.491978E+01;  BLOECHL correction:    0.000000
       DOS:  cpu time    0.0023: real time    0.0024
    CHARGE:  cpu time    0.0648: real time    0.0654
    MIXING:  cpu time    0.0037: real time    0.0058
    --------------------------------------------
      LOOP:  cpu time    1.9875: real time    1.9986

 eigenvalue-minimisations  :  1695
 total energy-change (2. order) :-0.1602791E-04  (-0.1421596E-05)
 number of electron       8.0000000 magnetization      -0.0001841
 augmentation part       -0.4583077 magnetization      -0.0001696

 Broyden mixing:
  rms(total) = 0.10195E-02    rms(broyden)= 0.10195E-02
  rms(prec ) = 0.13004E-02
  weight for this iteration     100.00

 eigenvalues of (default mixing * dielectric matrix)
  average eigenvalue GAMMA=   1.4112
  2.6210  2.6210  1.7008  0.6217  0.7618  0.7618  0.7901

 Free energy of the ion-electron system (eV)
  ---------------------------------------------------
  alpha Z        PSCENC =         3.29317992
  Ewald energy   TEWEN  =      -226.94489173
  -Hartree energ DENC   =       -15.17145778
  -exchange      EXHF   =         0.00000000
  -V(xc)+E(xc)   XCENC  =       -18.06140199
  PAW double counting   =       830.07322346     -795.09202112
  entropy T*S    EENTRO =         0.00000000
  eigenvalues    EBANDS =         4.91977960
  atomic energy  EATOM  =       206.13322186
  Solvation  Ediel_sol  =         0.00000000
  ---------------------------------------------------
  free energy    TOTEN  =       -10.85036779 eV

  energy without entropy =      -10.85036779  energy(sigma->0) =      -10.85036779


--------------------------------------------------------------------------------------------------------




--------------------------------------- Iteration      1(  13)  ---------------------------------------


    POTLOK:  cpu time    0.0980: real time    0.0983
    SETDIJ:  cpu time    0.1583: real time    0.1587
     EDDAV:  cpu time    1.2343: real time    1.2385
 BZINTS: Fermi energy:    6.233917;    8.000000 electrons
         Band energy: 0.492139E+01;  BLOECHL correction:   -0.000000
       DOS:  cpu time    0.0029: real time    0.0065
    --------------------------------------------
      LOOP:  cpu time    1.4935: real time    1.5020

 eigenvalue-minimisations  :  1143
 total energy-change (2. order) :-0.3359560E-05  (-0.6114099E-06)
 number of electron       8.0000000 magnetization      -0.0001841
 augmentation part       -0.4583077 magnetization      -0.0001696

 Free energy of the ion-electron system (eV)
  ---------------------------------------------------
  alpha Z        PSCENC =         3.29317992
  Ewald energy   TEWEN  =      -226.94489173
  -Hartree energ DENC   =       -15.17317274
  -exchange      EXHF   =         0.00000000
  -V(xc)+E(xc)   XCENC  =       -18.06135957
  PAW double counting   =       828.33961384     -793.35835054
  entropy T*S    EENTRO =         0.00000000
  eigenvalues    EBANDS =         4.92138782
  atomic energy  EATOM  =       206.13322186
  Solvation  Ediel_sol  =         0.00000000
  ---------------------------------------------------
  free energy    TOTEN  =       -10.85037115 eV

  energy without entropy =      -10.85037115  energy(sigma->0) =      -10.85037115


--------------------------------------------------------------------------------------------------------




 average (electrostatic) potential at core
  the test charge radii are     0.9892
  (the norm of the test charge is              1.0000)
       1 -83.4835       2 -83.4835
 
 
 
 E-fermi :   6.2339     XC(G=0):  -9.3273     alpha+bet :-11.7317

 Fermi energy:         6.2339169490

 spin component 1

 k-point     1 :       0.0000    0.0000    0.0000
  band No.  band energies     occupation 
      1      -6.1987      1.00000
      2       5.6163      1.00000
      3       5.6163      1.00000
      4       5.6163      1.00000
      5       8.1731      0.00000
      6       8.1731      0.00000
      7       8.1731      0.00000
      8       8.7494      0.00000
      9      13.3254      0.00000

 k-point     2 :       0.1000    0.0000    0.0000
  band No.  band energies     occupation 
      1      -6.0701      1.00000
      2       4.4742      1.00000
      3       5.4225      1.00000
      4       5.4225      1.00000
      5       8.1388      0.00000
      6       8.4589      0.00000
      7       8.4589      0.00000
      8       9.7197      0.00000
      9      12.9756      0.00000

 k-point     3 :       0.2000    0.0000    0.0000
  band No.  band energies     occupation 
      1      -5.6907      1.00000
      2       2.6343      1.00000
      3       5.0488      1.00000
      4       5.0488      1.00000
      5       7.7684      0.00000
      6       8.9607      0.00000
      7       8.9607      0.00000
      8      11.4943      0.00000
      9      12.6649      0.00000

 k-point     4 :       0.3000   -0.0000    0.0000
  band No.  band energies     occupation 
      1      -5.0873      1.00000
      2       0.8762      1.00000
      3       4.7187      1.00000
      4       4.7187      1.00000
      5       7.4047      0.00000
      6       9.1413      0.00000
      7       9.1413      0.00000
      8      13.1163      0.00000
      9      13.1905      0.00000

 k-point     5 :       0.4000    0.0000    0.0000
  band No.  band energies     occupation 
      1      -4.3576      1.00000
      2      -0.5721      1.00000
      3       4.5089      1.00000
      4       4.5089      1.00000
      5       7.1647      0.00000
      6       9.0368      0.00000
      7       9.0368      0.00000
      8      13.4205      0.00000
      9      14.5528      0.00000

 k-point     6 :       0.5000    0.0000    0.0000
  band No.  band energies     occupation 
      1      -3.9200      1.00000
      2      -1.2525      1.00000
      3       4.4380      1.00000
      4       4.4380      1.00000
      5       7.0824      0.00000
      6       8.9657      0.00000
      7       8.9657      0.00000
      8      13.3175      0.00000
      9      16.1114      0.00000

 k-point     7 :       0.1000    0.1000    0.0000
  band No.  band energies     occupation 
      1      -6.0269      1.00000
      2       4.6606      1.00000
      3       5.0549      1.00000
      4       5.0549      1.00000
      5       7.8013      0.00000
      6       8.9455      0.00000
      7       8.9455      0.00000
      8       9.6042      0.00000
      9      12.3529      0.00000

 k-point     8 :       0.2000    0.1000    0.0000
  band No.  band energies     occupation 
      1      -5.7299      1.00000
      2       3.1747      1.00000
      3       4.6284      1.00000
      4       4.7863      1.00000
      5       7.8554      0.00000
      6       8.9544      0.00000
      7       9.5892      0.00000
      8      10.5288      0.00000
      9      12.3086      0.00000

 k-point     9 :       0.3000    0.1000    0.0000
  band No.  band energies     occupation 
      1      -5.1966      1.00000
      2       1.4439      1.00000
      3       4.3141      1.00000
      4       4.3584      1.00000
      5       7.9633      0.00000
      6       8.9578      0.00000
      7       9.8761      0.00000
      8      10.9179      0.00000
      9      13.7393      0.00000

 k-point    10 :       0.4000    0.1000    0.0000
  band No.  band energies     occupation 
      1      -4.4881      1.00000
      2      -0.1002      1.00000
      3       3.9533      1.00000
      4       4.1676      1.00000
      5       7.8064      0.00000
      6       8.9459      0.00000
      7       9.7124      0.00000
      8      11.9627      0.00000
      9      14.5223      0.00000

 k-point    11 :       0.5000    0.1000    0.0000
  band No.  band energies     occupation 
      1      -3.8652      1.00000
      2      -1.1132      1.00000
      3       3.6688      1.00000
      4       4.1983      1.00000
      5       7.7130      0.00000
      6       8.9266      0.00000
      7       9.4556      0.00000
      8      13.3557      0.00000
      9      14.4706      0.00000

 k-point    12 :      -0.4000    0.1000    0.0000
  band No.  band energies     occupation 
      1      -4.0272      1.00000
      2      -0.8709      1.00000
      3       3.5448      1.00000
      4       4.3932      1.00000
      5       7.7677      0.00000
      6       9.0609      0.00000
      7       9.3027      0.00000
      8      13.6071      0.00000
      9      14.1730      0.00000

 k-point    13 :      -0.3000    0.1000    0.0000
  band No.  band energies     occupation 
      1      -4.7379      1.00000
      2       0.3841      1.00000
      3       3.6070      1.00000
      4       4.7210      1.00000
      5       7.9671      0.00000
      6       9.2256      0.00000
      7       9.3043      0.00000
      8      12.5466      0.00000
      9      12.6690      0.00000

 k-point    14 :      -0.2000    0.1000    0.0000
  band No.  band energies     occupation 
      1      -5.4001      1.00000
      2       2.0036      1.00000
      3       3.8824      1.00000
      4       5.1195      1.00000
      5       8.2747      0.00000
      6       8.9728      0.00000
      7       9.2997      0.00000
      8      11.4863      0.00000
      9      11.9761      0.00000

 k-point    15 :      -0.1000    0.1000    0.0000
  band No.  band energies     occupation 
      1      -5.8574      1.00000
      2       3.5893      1.00000
      3       4.4853      1.00000
      4       5.4410      1.00000
      5       8.5269      0.00000
      6       8.5276      0.00000
      7       8.7057      0.00000
      8      10.6654      0.00000
      9      12.2327      0.00000

 k-point    16 :       0.2000    0.2000    0.0000
  band No.  band energies     occupation 
      1      -5.5156      1.00000
      2       2.9815      1.00000
      3       4.1620      1.00000
      4       4.1620      1.00000
      5       7.0923      0.00000
      6       9.4690      0.00000
      7      10.4574      0.00000
      8      10.4574      0.00000
      9      12.5548      0.00000

 k-point    17 :       0.3000    0.2000    0.0000
  band No.  band energies     occupation 
      1      -5.0585      1.00000
      2       1.7591      1.00000
      3       3.6595      1.00000
      4       3.8197      1.00000
      5       7.1881      0.00000
      6       9.0607      0.00000
      7      10.7074      0.00000
      8      11.0456      0.00000
      9      14.0205      0.00000

 k-point    18 :       0.4000    0.2000    0.0000
  band No.  band energies     occupation 
      1      -4.3967      1.00000
      2       0.3527      1.00000
      3       3.0394      1.00000
      4       3.6619      1.00000
      5       7.4029      0.00000
      6       9.6856      0.00000
      7      10.4766      0.00000
      8      11.0122      0.00000
      9      15.6683      0.00000

 k-point    19 :       0.5000    0.2000    0.0000
  band No.  band energies     occupation 
      1      -3.6836      1.00000
      2      -0.8037      1.00000
      3       2.5380      1.00000
      4       3.7038      1.00000
      5       7.4666      0.00000
      6      10.2576      0.00000
      7      10.6949      0.00000
      8      11.2115      0.00000
      9      15.3050      0.00000

 k-point    20 :      -0.4000    0.2000    0.0000
  band No.  band energies     occupation 
      1      -3.5358      1.00000
      2      -1.0056      1.00000
      3       2.2468      1.00000
      4       3.9365      1.00000
      5       7.6743      0.00000
      6      10.1627      0.00000
      7      10.3967      0.00000
      8      13.1106      0.00000
      9      13.8861      0.00000

 k-point    21 :      -0.3000    0.2000    0.0000
  band No.  band energies     occupation 
      1      -4.1723      1.00000
      2      -0.0438      1.00000
      3       2.2322      1.00000
      4       4.3252      1.00000
      5       8.0564      0.00000
      6      10.1207      0.00000
      7      10.1776      0.00000
      8      12.2335      0.00000
      9      12.4286      0.00000

 k-point    22 :      -0.2000    0.2000    0.0000
  band No.  band energies     occupation 
      1      -4.8751      1.00000
      2       1.1696      1.00000
      3       2.6829      1.00000
      4       4.7853      1.00000
      5       8.4669      0.00000
      6       9.5818      0.00000
      7       9.8855      0.00000
      8      11.2727      0.00000
      9      11.7477      0.00000

 k-point    23 :       0.3000    0.3000    0.0000
  band No.  band energies     occupation 
      1      -4.6772      1.00000
      2       1.2120      1.00000
      3       3.4341      1.00000
      4       3.4341      1.00000
      5       6.5053      0.00000
      6       8.0521      0.00000
      7      12.1875      0.00000
      8      12.1875      0.00000
      9      14.5235      0.00000

 k-point    24 :       0.4000    0.3000    0.0000
  band No.  band energies     occupation 
      1      -4.0760      1.00000
      2       0.2234      1.00000
      3       2.8228      1.00000
      4       3.2325      1.00000
      5       6.6927     -0.00000
      6       7.8815      0.00000
      7      12.4714      0.00000
      8      12.6120      0.00000
      9      16.0307      0.00000

 k-point    25 :       0.5000    0.3000    0.0000
  band No.  band energies     occupation 
      1      -3.3422      1.00000
      2      -0.7622      1.00000
      3       2.0130      1.00000
      4       3.2384      1.00000
      5       6.8740      0.00000
      6       8.9922      0.00000
      7      12.2856      0.00000
      8      12.3739      0.00000
      9      15.9686      0.00000

 k-point    26 :      -0.4000    0.3000    0.0000
  band No.  band energies     occupation 
      1      -2.9362      1.00000
      2      -1.2242      1.00000
      3       1.4723      1.00000
      4       3.4492      1.00000
      5       7.1020      0.00000
      6      10.7769      0.00000
      7      11.9785      0.00000
      8      12.1254      0.00000
      9      14.0303      0.00000

 k-point    27 :      -0.3000    0.3000    0.0000
  band No.  band energies     occupation 
      1      -3.4618      1.00000
      2      -0.6465      1.00000
      3       1.4478      1.00000
      4       3.8372      1.00000
      5       7.5344      0.00000
      6      11.3103      0.00000
      7      11.6210      0.00000
      8      12.3429      0.00000
      9      12.7049      0.00000

 k-point    28 :       0.4000    0.4000    0.0000
  band No.  band energies     occupation 
      1      -3.5356      1.00000
      2      -0.5210      1.00000
      3       2.9771      1.00000
      4       2.9771      1.00000
      5       6.2336      0.00000
      6       6.9652      0.00000
      7      14.0168      0.00000
      8      14.0168      0.00000
      9      16.3687      0.00000

 k-point    29 :       0.5000    0.4000    0.0000
  band No.  band energies     occupation 
      1      -2.8210      1.00000
      2      -1.3472      1.00000
      3       2.4081      1.00000
      4       2.9292      1.00000
      5       6.4694     -0.00000
      6       7.2148      0.00000
      7      14.2661      0.00000
      8      14.3428      0.00000
      9      16.3079      0.00000

 k-point    30 :      -0.4000    0.4000    0.0000
  band No.  band energies     occupation 
      1      -2.3603      1.00000
      2      -1.7570      1.00000
      3       1.6471      1.00000
      4       3.0930      1.00000
      5       6.6795      0.00000
      6       8.7648      0.00000
      7      13.6131      0.00000
      8      14.1880      0.00000
      9      14.1889      0.00000

 k-point    31 :       0.5000    0.5000    0.0000
  band No.  band energies     occupation 
      1      -2.1302      1.00000
      2      -2.1302      1.00000
      3       2.8222      1.00000
      4       2.8222      1.00000
      5       6.3674      0.00000
      6       6.3674      0.00000
      7      15.5528      0.00000
      8      15.5528      0.00000
      9      16.5233      0.00000

 k-point    32 :       0.3000    0.2000    0.1000
  band No.  band energies     occupation 
      1      -5.3535      1.00000
      2       2.2546      1.00000
      3       3.5834      1.00000
      4       4.6610      1.00000
      5       7.9610      0.00000
      6       9.2651      0.00000
      7      10.2142      0.00000
      8      10.2351      0.00000
      9      12.7730      0.00000

 k-point    33 :       0.4000    0.2000    0.1000
  band No.  band energies     occupation 
      1      -4.7540      1.00000
      2       0.8722      1.00000
      3       2.9997      1.00000
      4       4.2953      1.00000
      5       8.3010      0.00000
      6       9.1830      0.00000
      7      10.3077      0.00000
      8      10.7005      0.00000
      9      13.4294      0.00000

 k-point    34 :       0.5000    0.2000    0.1000
  band No.  band energies     occupation 
      1      -4.0241      1.00000
      2      -0.4608      1.00000
      3       2.7658      1.00000
      4       3.9545      1.00000
      5       8.3393      0.00000
      6       8.8937      0.00000
      7      10.6275      0.00000
      8      11.6286      0.00000
      9      14.7289      0.00000

 k-point    35 :      -0.4000    0.2000    0.1000
  band No.  band energies     occupation 
      1      -3.5787      1.00000
      2      -1.1204      1.00000
      3       2.7046      1.00000
      4       3.8206      1.00000
      5       8.3519      0.00000
      6       8.7302      0.00000
      7      10.5906      0.00000
      8      13.3467      0.00000
      9      13.3901      0.00000

 k-point    36 :       0.4000    0.3000    0.1000
  band No.  band energies     occupation 
      1      -4.5309      1.00000
      2       0.8660      1.00000
      3       2.8706      1.00000
      4       3.5754      1.00000
      5       7.4026      0.00000
      6       8.6824      0.00000
      7      10.7567      0.00000
      8      12.0802      0.00000
      9      14.4313      0.00000

 k-point    37 :       0.5000    0.3000    0.1000
  band No.  band energies     occupation 
      1      -3.8256      1.00000
      2      -0.2142      1.00000
      3       2.2619      1.00000
      4       3.2562      1.00000
      5       7.7831      0.00000
      6       9.3687      0.00000
      7      10.3826      0.00000
      8      12.4716      0.00000
      9      15.5103      0.00000

 k-point    38 :      -0.4000    0.3000    0.1000
  band No.  band energies     occupation 
      1      -3.1928      1.00000
      2      -1.0542      1.00000
      3       1.8597      1.00000
      4       3.2019      1.00000
      5       7.9629      0.00000
      6       9.9555      0.00000
      7      11.0786      0.00000
      8      12.3997      0.00000
      9      13.4812      0.00000

 k-point    39 :      -0.3000    0.3000    0.1000
  band No.  band energies     occupation 
      1      -3.3891      1.00000
      2      -0.8017      1.00000
      3       1.7151      1.00000
      4       3.4357      1.00000
      5       8.2964      0.00000
      6       9.7010      0.00000
      7      11.5078      0.00000
      8      12.2849      0.00000
      9      13.1435      0.00000

 k-point    40 :      -0.2000    0.3000    0.1000
  band No.  band energies     occupation 
      1      -4.1073      1.00000
      2       0.1272      1.00000
      3       2.0131      1.00000
      4       3.8649      1.00000
      5       8.7754      0.00000
      6       9.2540      0.00000
      7      10.3008      0.00000
      8      11.8087      0.00000
      9      13.4895      0.00000

 k-point    41 :       0.5000    0.4000    0.1000
  band No.  band energies     occupation 
      1      -3.4207      1.00000
      2      -0.6063      1.00000
      3       2.4680      1.00000
      4       2.7891      1.00000
      5       7.1191     -0.00000
      6       7.7123      0.00000
      7      12.2896      0.00000
      8      14.0029      0.00000
      9      15.9497      0.00000

 k-point    42 :      -0.4000    0.4000    0.1000
  band No.  band energies     occupation 
      1      -2.6993      1.00000
      2      -1.3670      1.00000
      3       1.7861      1.00000
      4       2.7000      1.00000
      5       7.4693      0.00000
      6       8.8939      0.00000
      7      11.8953      0.00000
      8      13.6511      0.00000
      9      14.4413      0.00000

 k-point    43 :      -0.3000    0.4000    0.1000
  band No.  band energies     occupation 
      1      -2.7085      1.00000
      2      -1.3375      1.00000
      3       1.3809      1.00000
      4       2.9635      1.00000
      5       7.7907      0.00000
      6      10.7114      0.00000
      7      11.4934      0.00000
      8      11.8318      0.00000
      9      13.9213      0.00000

 k-point    44 :      -0.4000    0.5000    0.1000
  band No.  band energies     occupation 
      1      -2.0799      1.00000
      2      -2.0799      1.00000
      3       2.4271      1.00000
      4       2.4271      1.00000
      5       7.2021      0.00000
      6       7.2021      0.00000
      7      14.0029      0.00000
      8      14.0029      0.00000
      9      16.0842      0.00000

 k-point    45 :      -0.4000    0.4000    0.2000
  band No.  band energies     occupation 
      1      -3.1092      1.00000
      2      -0.8983      1.00000
      3       1.7272      1.00000
      4       2.6943      1.00000
      5       8.9985      0.00000
      6       9.3956      0.00000
      7       9.9876      0.00000
      8      13.3193      0.00000
      9      13.9731      0.00000

 k-point    46 :      -0.3000    0.4000    0.2000
  band No.  band energies     occupation 
      1      -2.6107      1.00000
      2      -1.3976      1.00000
      3       1.5740      1.00000
      4       2.4494      1.00000
      5       9.2919      0.00000
      6       9.5683      0.00000
      7      10.9781      0.00000
      8      11.3843      0.00000
      9      14.4130      0.00000

 k-point    47 :      -0.3000    0.5000    0.2000
  band No.  band energies     occupation 
      1      -1.9916      1.00000
      2      -1.9916      1.00000
      3       1.9301      1.00000
      4       1.9301      1.00000
      5       9.0415      0.00000
      6       9.0415      0.00000
      7      11.4780      0.00000
      8      11.4780      0.00000
      9      16.0665      0.00000
 Fermi energy:         6.2339169490

 spin component 2

 k-point     1 :       0.0000    0.0000    0.0000
  band No.  band energies     occupation 
      1      -6.1989      1.00000
      2       5.6159      1.00000
      3       5.6159      1.00000
      4       5.6159      1.00000
      5       8.1730      0.00000
      6       8.1730      0.00000
      7       8.1730      0.00000
      8       8.7491      0.00000
      9      13.3253      0.00000

 k-point     2 :       0.1000    0.0000    0.0000
  band No.  band energies     occupation 
      1      -6.0703      1.00000
      2       4.4738      1.00000
      3       5.4221      1.00000
      4       5.4222      1.00000
      5       8.1387      0.00000
      6       8.4588      0.00000
      7       8.4588      0.00000
      8       9.7195      0.00000
      9      12.9756      0.00000

 k-point     3 :       0.2000    0.0000    0.0000
  band No.  band energies     occupation 
      1      -5.6909      1.00000
      2       2.6340      1.00000
      3       5.0484      1.00000
      4       5.0484      1.00000
      5       7.7684      0.00000
      6       8.9606      0.00000
      7       8.9606      0.00000
      8      11.4942      0.00000
      9      12.6648      0.00000

 k-point     4 :       0.3000   -0.0000    0.0000
  band No.  band energies     occupation 
      1      -5.0875      1.00000
      2       0.8760      1.00000
      3       4.7184      1.00000
      4       4.7184      1.00000
      5       7.4046      0.00000
      6       9.1412      0.00000
      7       9.1412      0.00000
      8      13.1164      0.00000
      9      13.1905      0.00000

 k-point     5 :       0.4000    0.0000    0.0000
  band No.  band energies     occupation 
[...]
  band No.  band energies     occupation 
      1      -4.8753      1.00000
      2       1.1693      1.00000
      3       2.6828      1.00000
      4       4.7850      1.00000
      5       8.4668      0.00000
      6       9.5817      0.00000
      7       9.8855      0.00000
      8      11.2728      0.00000
      9      11.7477      0.00000

 k-point    23 :       0.3000    0.3000    0.0000
  band No.  band energies     occupation 
      1      -4.6775      1.00000
      2       1.2116      1.00000
      3       3.4338      1.00000
      4       3.4338      1.00000
      5       6.5055      0.00000
      6       8.0524      0.00000
      7      12.1873      0.00000
      8      12.1873      0.00000
      9      14.5233      0.00000

 k-point    24 :       0.4000    0.3000    0.0000
  band No.  band energies     occupation 
      1      -4.0763      1.00000
      2       0.2231      1.00000
      3       2.8226      1.00000
      4       3.2323      1.00000
      5       6.6929     -0.00000
      6       7.8818      0.00000
      7      12.4712      0.00000
      8      12.6118      0.00000
      9      16.0254      0.00000

 k-point    25 :       0.5000    0.3000    0.0000
  band No.  band energies     occupation 
      1      -3.3425      1.00000
      2      -0.7625      1.00000
      3       2.0129      1.00000
      4       3.2381      1.00000
      5       6.8742      0.00000
      6       8.9923      0.00000
      7      12.2855      0.00000
      8      12.3737      0.00000
      9      15.9685      0.00000

 k-point    26 :      -0.4000    0.3000    0.0000
  band No.  band energies     occupation 
      1      -2.9365      1.00000
      2      -1.2244      1.00000
      3       1.4722      1.00000
      4       3.4489      1.00000
      5       7.1022      0.00000
      6      10.7770      0.00000
      7      11.9784      0.00000
      8      12.1252      0.00000
      9      14.0211      0.00000

 k-point    27 :      -0.3000    0.3000    0.0000
  band No.  band energies     occupation 
      1      -3.4620      1.00000
      2      -0.6468      1.00000
      3       1.4478      1.00000
      4       3.8369      1.00000
      5       7.5346      0.00000
      6      11.3101      0.00000
      7      11.6210      0.00000
      8      12.3429      0.00000
      9      12.7049      0.00000

 k-point    28 :       0.4000    0.4000    0.0000
  band No.  band energies     occupation 
      1      -3.5358      1.00000
      2      -0.5214      1.00000
      3       2.9769      1.00000
      4       2.9769      1.00000
      5       6.2339      0.00000
      6       6.9655      0.00000
      7      14.0165      0.00000
      8      14.0165      0.00000
      9      16.3656      0.00000

 k-point    29 :       0.5000    0.4000    0.0000
  band No.  band energies     occupation 
      1      -2.8213      1.00000
      2      -1.3475      1.00000
      3       2.4080      1.00000
      4       2.9289      1.00000
      5       6.4697     -0.00000
      6       7.2150      0.00000
      7      14.2659      0.00000
      8      14.3427      0.00000
      9      16.3071      0.00000

 k-point    30 :      -0.4000    0.4000    0.0000
  band No.  band energies     occupation 
      1      -2.3606      1.00000
      2      -1.7573      1.00000
      3       1.6470      1.00000
      4       3.0928      1.00000
      5       6.6798      0.00000
      6       8.7649      0.00000
      7      13.6130      0.00000
      8      14.1879      0.00000
      9      14.1888      0.00000

 k-point    31 :       0.5000    0.5000    0.0000
  band No.  band energies     occupation 
      1      -2.1304      1.00000
      2      -2.1304      1.00000
      3       2.8220      1.00000
      4       2.8220      1.00000
      5       6.3677      0.00000
      6       6.3677      0.00000
      7      15.5526      0.00000
      8      15.5526      0.00000
      9      16.5231      0.00000

 k-point    32 :       0.3000    0.2000    0.1000
  band No.  band energies     occupation 
      1      -5.3537      1.00000
      2       2.2542      1.00000
      3       3.5832      1.00000
      4       4.6606      1.00000
      5       7.9611      0.00000
      6       9.2649      0.00000
      7      10.2144      0.00000
      8      10.2349      0.00000
      9      12.7729      0.00000

 k-point    33 :       0.4000    0.2000    0.1000
  band No.  band energies     occupation 
      1      -4.7542      1.00000
      2       0.8719      1.00000
      3       2.9995      1.00000
      4       4.2950      1.00000
      5       8.3010      0.00000
      6       9.1829      0.00000
      7      10.3078      0.00000
      8      10.7004      0.00000
      9      13.4293      0.00000

 k-point    34 :       0.5000    0.2000    0.1000
  band No.  band energies     occupation 
      1      -4.0243      1.00000
      2      -0.4610      1.00000
      3       2.7656      1.00000
      4       3.9542      1.00000
      5       8.3393      0.00000
      6       8.8938      0.00000
      7      10.6274      0.00000
      8      11.6287      0.00000
      9      14.7279      0.00000

 k-point    35 :      -0.4000    0.2000    0.1000
  band No.  band energies     occupation 
      1      -3.5790      1.00000
      2      -1.1206      1.00000
      3       2.7044      1.00000
      4       3.8203      1.00000
      5       8.3518      0.00000
      6       8.7303      0.00000
      7      10.5905      0.00000
      8      13.3468      0.00000
      9      13.3901      0.00000

 k-point    36 :       0.4000    0.3000    0.1000
  band No.  band energies     occupation 
      1      -4.5311      1.00000
      2       0.8657      1.00000
      3       2.8704      1.00000
      4       3.5752      1.00000
      5       7.4027      0.00000
      6       8.6826      0.00000
      7      10.7565      0.00000
      8      12.0800      0.00000
      9      14.4312      0.00000

 k-point    37 :       0.5000    0.3000    0.1000
  band No.  band energies     occupation 
      1      -3.8259      1.00000
      2      -0.2145      1.00000
      3       2.2618      1.00000
      4       3.2560      1.00000
      5       7.7832      0.00000
      6       9.3689      0.00000
      7      10.3825      0.00000
      8      12.4715      0.00000
      9      15.5231      0.00000

 k-point    38 :      -0.4000    0.3000    0.1000
  band No.  band energies     occupation 
      1      -3.1931      1.00000
      2      -1.0544      1.00000
      3       1.8596      1.00000
      4       3.2017      1.00000
      5       7.9630      0.00000
      6       9.9555      0.00000
      7      11.0786      0.00000
      8      12.3995      0.00000
      9      13.4812      0.00000

 k-point    39 :      -0.3000    0.3000    0.1000
  band No.  band energies     occupation 
      1      -3.3894      1.00000
      2      -0.8020      1.00000
      3       1.7150      1.00000
      4       3.4355      1.00000
      5       8.2965      0.00000
      6       9.7010      0.00000
      7      11.5078      0.00000
      8      12.2848      0.00000
      9      13.1434      0.00000

 k-point    40 :      -0.2000    0.3000    0.1000
  band No.  band energies     occupation 
      1      -4.1076      1.00000
      2       0.1269      1.00000
      3       2.0130      1.00000
      4       3.8646      1.00000
      5       8.7754      0.00000
      6       9.2540      0.00000
      7      10.3009      0.00000
      8      11.8085      0.00000
      9      13.4895      0.00000

 k-point    41 :       0.5000    0.4000    0.1000
  band No.  band energies     occupation 
      1      -3.4209      1.00000
      2      -0.6066      1.00000
      3       2.4678      1.00000
      4       2.7889      1.00000
      5       7.1193     -0.00000
      6       7.7125      0.00000
      7      12.2894      0.00000
      8      14.0027      0.00000
      9      15.9494      0.00000

 k-point    42 :      -0.4000    0.4000    0.1000
  band No.  band energies     occupation 
      1      -2.6996      1.00000
      2      -1.3673      1.00000
      3       1.7860      1.00000
      4       2.6998      1.00000
      5       7.4695      0.00000
      6       8.8940      0.00000
      7      11.8952      0.00000
      8      13.6510      0.00000
      9      14.4411      0.00000

 k-point    43 :      -0.3000    0.4000    0.1000
  band No.  band energies     occupation 
      1      -2.7089      1.00000
      2      -1.3378      1.00000
      3       1.3809      1.00000
      4       2.9633      1.00000
      5       7.7908      0.00000
      6      10.7115      0.00000
      7      11.4933      0.00000
      8      11.8318      0.00000
      9      13.9211      0.00000

 k-point    44 :      -0.4000    0.5000    0.1000
  band No.  band energies     occupation 
      1      -2.0802      1.00000
      2      -2.0802      1.00000
      3       2.4269      1.00000
      4       2.4269      1.00000
      5       7.2023      0.00000
      6       7.2023      0.00000
      7      14.0028      0.00000
      8      14.0028      0.00000
      9      16.0841      0.00000

 k-point    45 :      -0.4000    0.4000    0.2000
  band No.  band energies     occupation 
      1      -3.1095      1.00000
      2      -0.8986      1.00000
      3       1.7272      1.00000
      4       2.6942      1.00000
      5       8.9986      0.00000
      6       9.3958      0.00000
      7       9.9875      0.00000
      8      13.3192      0.00000
      9      13.9729      0.00000

 k-point    46 :      -0.3000    0.4000    0.2000
  band No.  band energies     occupation 
      1      -2.6110      1.00000
      2      -1.3979      1.00000
      3       1.5740      1.00000
      4       2.4493      1.00000
      5       9.2920      0.00000
      6       9.5683      0.00000
      7      10.9781      0.00000
      8      11.3842      0.00000
      9      14.4128      0.00000

 k-point    47 :      -0.3000    0.5000    0.2000
  band No.  band energies     occupation 
      1      -1.9919      1.00000
      2      -1.9919      1.00000
      3       1.9300      1.00000
      4       1.9300      1.00000
      5       9.0416      0.00000
      6       9.0416      0.00000
      7      11.4779      0.00000
      8      11.4779      0.00000
      9      16.0663      0.00000


--------------------------------------------------------------------------------------------------------


 soft charge-density along one line, spin component           1
         0         1         2         3         4         5         6         7         8         9
 total charge-density along one line
 
 soft charge-density along one line, spin component           2
         0         1         2         3         4         5         6         7         8         9
 total charge-density along one line
 
 pseudopotential strength for first ion, spin component:           1
 18.437  25.723  -0.000  -0.000   0.000  -0.000  -0.000   0.000
 25.723  35.893  -0.000  -0.000   0.000  -0.000  -0.000   0.000
 -0.000  -0.000   4.181   0.000   0.000   7.791   0.000   0.000
 -0.000  -0.000   0.000   4.181   0.000   0.000   7.791   0.000
  0.000   0.000   0.000   0.000   4.181   0.000   0.000   7.791
 -0.000  -0.000   7.791   0.000   0.000  14.528   0.000   0.000
 -0.000  -0.000   0.000   7.791   0.000   0.000  14.528   0.000
  0.000   0.000   0.000   0.000   7.791   0.000   0.000  14.528
 pseudopotential strength for first ion, spin component:           2
 18.437  25.723  -0.000  -0.000   0.000  -0.000  -0.000   0.000
 25.723  35.893  -0.000  -0.000   0.000  -0.000  -0.000   0.000
 -0.000  -0.000   4.181   0.000  -0.000   7.791   0.000  -0.000
 -0.000  -0.000   0.000   4.181   0.000   0.000   7.791   0.000
  0.000   0.000  -0.000   0.000   4.181  -0.000   0.000   7.791
 -0.000  -0.000   7.791   0.000  -0.000  14.528   0.000  -0.000
 -0.000  -0.000   0.000   7.791   0.000   0.000  14.528   0.000
  0.000   0.000  -0.000   0.000   7.791  -0.000   0.000  14.528
 total augmentation occupancy for first ion, spin component:           1
  5.516  -2.058   0.000   0.000   0.000  -0.000   0.000  -0.000
 -2.058   0.885  -0.000  -0.000  -0.000  -0.000   0.000   0.000
  0.000  -0.000   2.902  -0.000  -0.000  -0.648   0.000   0.000
  0.000   0.000  -0.000   2.902  -0.000   0.000  -0.648   0.000
  0.000  -0.000  -0.000  -0.000   2.902   0.000   0.000  -0.648
 -0.000   0.000  -0.648   0.000   0.000   0.153  -0.000  -0.000
 -0.000   0.000   0.000  -0.648   0.000  -0.000   0.153  -0.000
 -0.000   0.000   0.000   0.000  -0.648  -0.000  -0.000   0.153
 total augmentation occupancy for first ion, spin component:           2
 -0.001   0.000   0.000   0.000   0.000  -0.000  -0.000   0.000
  0.000  -0.000  -0.000   0.000  -0.000   0.000   0.000  -0.000
  0.000  -0.000  -0.000   0.000   0.000   0.000  -0.000  -0.000
  0.000  -0.000   0.000  -0.000   0.000  -0.000   0.000  -0.000
 -0.000   0.000   0.000   0.000  -0.000  -0.000  -0.000   0.000
  0.000   0.000   0.000  -0.000  -0.000  -0.000   0.000   0.000
 -0.000   0.000  -0.000   0.000  -0.000   0.000  -0.000   0.000
 -0.000  -0.000  -0.000  -0.000   0.000   0.000   0.000  -0.000


------------------------ aborting loop because EDIFF is reached ----------------------------------------





 total charge

# of ion       s       p       d       tot
------------------------------------------
    1        0.751   0.928   0.000   1.679
    2        0.751   0.928   0.000   1.679
--------------------------------------------------
tot          1.501   1.856   0.000   3.357



 magnetization (x)

# of ion       s       p       d       tot
------------------------------------------
    1       -0.000  -0.000   0.000  -0.000
    2       -0.000  -0.000   0.000  -0.000
--------------------------------------------------
tot         -0.000  -0.000   0.000  -0.000
 
    CHARGE:  cpu time    0.0651: real time    0.0657
    FORLOC:  cpu time    0.0022: real time    0.0025
    FORNL :  cpu time    0.3608: real time    0.3619
    STRESS:  cpu time    1.1278: real time    1.1319
    FORCOR:  cpu time    0.0938: real time    0.0944
    FORHAR:  cpu time    0.0087: real time    0.0089
    MIXING:  cpu time    0.0028: real time    0.0028
    OFIELD:  cpu time    0.0001: real time    0.0004

  FORCE on cell =-STRESS in cart. coord.  units (eV):
  Direction    XX          YY          ZZ          XY          YZ          ZX
  --------------------------------------------------------------------------------------
  Alpha Z     3.29318     3.29318     3.29318
  Ewald     -75.64832   -75.64835   -75.64832    -0.00001     0.00001     0.00001
  Hartree     5.05801     5.05801     5.05801    -0.00000     0.00000     0.00000
  E(xc)     -25.24639   -25.24639   -25.24639    -0.00000    -0.00000    -0.00000
  Local     -29.50127   -29.50127   -29.50128     0.00001    -0.00000    -0.00000
  n-local    73.82634    77.18328    81.31038    -0.92062    -0.83173    -0.02165
  augment   -11.64852   -11.64852   -11.64852    -0.00000    -0.00000    -0.00000
  Kinetic    53.04638    55.03307    60.67467     0.85013     1.16534    -0.54243
  Fock        0.00000     0.00000     0.00000     0.00000     0.00000     0.00000
  -------------------------------------------------------------------------------------
  Total      -0.00195    -0.00195    -0.00195     0.00000     0.00000     0.00000
  in kB      -0.07626    -0.07626    -0.07626     0.00000     0.00000     0.00000
  external pressure =       -0.08 kB  Pullay stress =        0.00 kB


 VOLUME and BASIS-vectors are now :
 -----------------------------------------------------------------------------
  energy-cutoff  :      680.00
  volume of cell :       40.89
      direct lattice vectors                 reciprocal lattice vectors
     3.348898000  0.000000000  1.933487000     0.298605691 -0.105573000  0.000000000
     1.116299000  3.157372000  1.933487000     0.000000000  0.316719094  0.000000000
     0.000000000  0.000000000  3.866975000    -0.149302807 -0.105573020  0.258600069

  length of vectors
     3.866974243  3.866974707  3.866975000     0.316719145  0.316719094  0.316719096


 FORCES acting on ions
    electron-ion (+dipol)            ewald-force                    non-local-force                 convergence-correction
 -----------------------------------------------------------------------------------------------
   0.371E-05 -.681E-05 -.830E-05   -.634E-05 0.116E-04 0.142E-04   0.402E-16 0.791E-16 0.153E-15   0.286E-09 -.479E-09 -.568E-09
   -.371E-05 0.681E-05 0.830E-05   0.634E-05 -.116E-04 -.142E-04   -.453E-16 -.937E-16 -.155E-15   -.286E-09 0.479E-09 0.568E-09
 -----------------------------------------------------------------------------------------------
   -.537E-13 0.294E-13 0.131E-12   0.718E-18 -.107E-15 0.148E-15   -.517E-17 -.146E-16 -.121E-17   -.141E-14 -.228E-15 -.405E-14
 
 
 POSITION                                       TOTAL-FORCE (eV/Angst)
 -----------------------------------------------------------------------------------
      1.11630      0.78934      1.93349         0.000000     -0.000000      0.000000
      0.00000      0.00000      0.00000        -0.000000      0.000000     -0.000000
 -----------------------------------------------------------------------------------
    total drift:                               -0.000000      0.000000      0.000000


--------------------------------------------------------------------------------------------------------



  FREE ENERGIE OF THE ION-ELECTRON SYSTEM (eV)
  ---------------------------------------------------
  free  energy   TOTEN  =       -10.85037115 eV

  energy  without entropy=      -10.85037115  energy(sigma->0) =      -10.85037115
 


--------------------------------------------------------------------------------------------------------


    POTLOK:  cpu time    0.2549: real time    0.2565


--------------------------------------------------------------------------------------------------------




--------------------------------------------------------------------------------------------------------


  
 reached required accuracy - stopping structural energy minimisation
     LOOP+:  cpu time   31.0836: real time   31.5389
    4ORBIT:  cpu time    0.0000: real time    0.0000



 total charge

# of ion       s       p       d       tot
------------------------------------------
    1        0.751   0.928   0.000   1.679
    2        0.751   0.928   0.000   1.679
--------------------------------------------------
tot          1.501   1.856   0.000   3.357



 magnetization (x)

# of ion       s       p       d       tot
------------------------------------------
    1       -0.000  -0.000   0.000  -0.000
    2       -0.000  -0.000   0.000  -0.000
--------------------------------------------------
tot         -0.000  -0.000   0.000  -0.000
 
 BZINTS: Fermi energy:    6.233917;    8.000000 electrons
         Band energy: 0.492139E+01;  BLOECHL correction:   -0.000000

 total amount of memory used by VASP MPI-rank0    47683. kBytes
=======================================================================

   base      :      30000. kBytes
   nonlr-proj:        483. kBytes
   fftplans  :       3553. kBytes
   grid      :       7807. kBytes
   one-center:          6. kBytes
   wavefun   :       5834. kBytes
 
  
  
 General timing and accounting informations for this job:
 ========================================================
  
                  Total CPU time used (sec):       36.189
                            User time (sec):       33.913
                          System time (sec):        2.276
                         Elapsed time (sec):       36.784
  
                   Maximum memory used (kb):    55635968.
                   Average memory used (kb):          N/A
  
                          Minor page faults:        49046
                          Major page faults:          967
                 Voluntary context switches:           40
