<?xml version="1.0" encoding="ISO-8859-1"?>
<modeling>
 <generator>
  <i name="program" type="string">vasp </i>
  <i name="version" type="string">6.2.1  </i>
  <i name="subversion" type="string">16May21 (build Oct 27 2021 18:14:32) complex                          parallel </i>
  <i name="platform" type="string">LinuxIFC </i>
  <i name="date" type="string">2021 11 21 </i>
  <i name="time" type="string">14:18:12 </i>
 </generator>
 <incar>
  <i type="string" name="PREC">Accurate</i>
  <i type="string" name="ALGO">Normal</i>
  <i type="int" name="ISPIN">     2</i>
  <i type="int" name="NELM">   200</i>
  <i type="int" name="IBRION">     2</i>
  <i name="EDIFF">      0.00001000</i>
  <i name="EDIFFG">     -0.02000000</i>
  <i type="int" name="NSW">     1</i>
  <i type="int" name="ISIF">     3</i>
  <i name="ENCUT">    680.00000000</i>
  <i name="ENAUG">   1360.00000000</i>
  <v name="MAGMOM">      0.60000000      0.60000000</v>
  <i type="string" name="LREAL">Auto</i>
  <i type="int" name="ISMEAR">    -5</i>
  <i name="SIGMA">      0.20000000</i>
  <i name="KSPACING">      0.22000000</i>
  <i type="logical" name="LWAVE"> F  </i>
  <i type="logical" name="LCHARG"> T  </i>
  <i type="logical" name="LVTOT"> T  </i>
  <i type="int" name="LORBIT">    11</i>
  <i type="logical" name="LELF"> T  </i>
  <i type="logical" name="LASPH"> T  </i>
  <i type="logical" name="LAECHG"> T  </i>
  <i type="logical" name="LMIXTAU"> T  </i>
 </incar>
 <primitive_cell>
  <structure name="primitive_cell" >
   <crystal>
    <varray name="basis" >
     <v>       3.34889800       0.00000000       1.93348700 </v>
     <v>       1.11629900       3.15737200       1.93348700 </v>
     <v>       0.00000000       0.00000000       3.86697500 </v>
    </varray>
    <i name="volume">     40.88829843 </i>
    <varray name="rec_basis" >
     <v>       0.29860569      -0.10557300       0.00000000 </v>
     <v>       0.00000000       0.31671909       0.00000000 </v>
     <v>      -0.14930281      -0.10557302       0.25860007 </v>
    </varray>
   </crystal>
   <varray name="positions" >
    <v>       0.25000000       0.25000000       0.25000000 </v>
    <v>       0.00000000       0.00000000       0.00000000 </v>
   </varray>
  </structure>
  <varray name="primitive_index" >
   <v type="int" >        1 </v>
   <v type="int" >        2 </v>
  </varray>
 </primitive_cell>
 <kpoints>
  <generation param="Gamma">
   <v type="int" name="divisions">      10       10       10 </v>
   <v name="usershift">      0.00000000       0.00000000       0.00000000 </v>
   <v name="genvec1">      0.10000000      -0.00000000       0.00000000 </v>
   <v name="genvec2">      0.00000000       0.10000000       0.00000000 </v>
   <v name="genvec3">     -0.00000000       0.00000000       0.10000000 </v>
   <v name="shift">      0.00000000       0.00000000       0.00000000 </v>
  </generation>
  <varray name="kpointlist" >
   <v>       0.00000000       0.00000000       0.00000000 </v>
   <v>       0.10000000       0.00000000       0.00000000 </v>
   <v>       0.20000000       0.00000000       0.00000000 </v>
   <v>       0.30000000      -0.00000000       0.00000000 </v>
   <v>       0.40000000       0.00000000       0.00000000 </v>
   <v>       0.50000000       0.00000000       0.00000000 </v>
   <v>       0.10000000       0.10000000       0.00000000 </v>
   <v>       0.20000000       0.10000000       0.00000000 </v>
   <v>       0.30000000       0.10000000       0.00000000 </v>
   <v>       0.40000000       0.10000000       0.00000000 </v>
   <v>       0.50000000       0.10000000       0.00000000 </v>
   <v>      -0.40000000       0.10000000       0.00000000 </v>
   <v>      -0.30000000       0.10000000       0.00000000 </v>
   <v>      -0.20000000       0.10000000       0.00000000 </v>
   <v>      -0.10000000       0.10000000       0.00000000 </v>
   <v>       0.20000000       0.20000000       0.00000000 </v>
   <v>       0.30000000       0.20000000       0.00000000 </v>
   <v>       0.40000000       0.20000000       0.00000000 </v>
   <v>       0.50000000       0.20000000       0.00000000 </v>
   <v>      -0.40000000       0.20000000       0.00000000 </v>
   <v>      -0.30000000       0.20000000       0.00000000 </v>
   <v>      -0.20000000       0.20000000       0.00000000 </v>
   <v>       0.30000000       0.30000000       0.00000000 </v>
   <v>       0.40000000       0.30000000       0.00000000 </v>
   <v>       0.50000000       0.30000000       0.00000000 </v>
   <v>      -0.40000000       0.30000000       0.00000000 </v>
   <v>      -0.30000000       0.30000000       0.00000000 </v>
   <v>       0.40000000       0.40000000       0.00000000 </v>
   <v>       0.50000000       0.40000000       0.00000000 </v>
   <v>      -0.40000000       0.40000000       0.00000000 </v>
   <v>       0.50000000       0.50000000       0.00000000 </v>
   <v>       0.30000000       0.20000000       0.10000000 </v>
   <v>       0.40000000       0.20000000       0.10000000 </v>
   <v>       0.50000000       0.20000000       0.10000000 </v>
   <v>      -0.40000000       0.20000000       0.10000000 </v>
   <v>       0.40000000       0.30000000       0.10000000 </v>
   <v>       0.50000000       0.30000000       0.10000000 </v>
   <v>      -0.40000000       0.30000000       0.10000000 </v>
   <v>      -0.30000000       0.30000000       0.10000000 </v>
   <v>      -0.20000000       0.30000000       0.10000000 </v>
   <v>       0.50000000       0.40000000       0.10000000 </v>
   <v>      -0.40000000       0.40000000       0.10000000 </v>
   <v>      -0.30000000       0.40000000       0.10000000 </v>
   <v>      -0.40000000       0.50000000       0.10000000 </v>
   <v>      -0.40000000       0.40000000       0.20000000 </v>
   <v>      -0.30000000       0.40000000       0.20000000 </v>
   <v>      -0.30000000       0.50000000       0.20000000 </v>
  </varray>
  <varray name="weights" >
   <v>       0.00100000 </v>
   <v>       0.00800000 </v>
   <v>       0.00800000 </v>
   <v>       0.00800000 </v>
   <v>       0.00800000 </v>
   <v>       0.00400000 </v>
   <v>       0.00600000 </v>
   <v>       0.02400000 </v>
   <v>       0.02400000 </v>
   <v>       0.02400000 </v>
   <v>       0.02400000 </v>
   <v>       0.02400000 </v>
   <v>       0.02400000 </v>
   <v>       0.02400000 </v>
   <v>       0.01200000 </v>
   <v>       0.00600000 </v>
   <v>       0.02400000 </v>
   <v>       0.02400000 </v>
   <v>       0.02400000 </v>
   <v>       0.02400000 </v>
   <v>       0.02400000 </v>
   <v>       0.01200000 </v>
   <v>       0.00600000 </v>
   <v>       0.02400000 </v>
   <v>       0.02400000 </v>
   <v>       0.02400000 </v>
   <v>       0.01200000 </v>
   <v>       0.00600000 </v>
   <v>       0.02400000 </v>
   <v>       0.01200000 </v>
   <v>       0.00300000 </v>
   <v>       0.02400000 </v>
   <v>       0.04800000 </v>
   <v>       0.04800000 </v>
   <v>       0.02400000 </v>
   <v>       0.02400000 </v>
   <v>       0.04800000 </v>
   <v>       0.04800000 </v>
   <v>       0.04800000 </v>
   <v>       0.02400000 </v>
   <v>       0.02400000 </v>
   <v>       0.04800000 </v>
   <v>       0.02400000 </v>
   <v>       0.01200000 </v>
   <v>       0.02400000 </v>
   <v>       0.02400000 </v>
   <v>       0.01200000 </v>
  </varray>
  <varray name="tetrahedronlist"  type="int" >
   <v type="int" >       24        1        2        2        7 </v>
   <v type="int" >       48        2        7        8       15 </v>
   <v type="int" >       48        2        3        8       15 </v>
   <v type="int" >       24        2        2        7       15 </v>
   <v type="int" >       48        3        8        9       14 </v>
   <v type="int" >       48        3        4        9       14 </v>
   <v type="int" >       48        3        8       14       15 </v>
   <v type="int" >       48        4        9       10       13 </v>
   <v type="int" >       48        4        5       10       13 </v>
   <v type="int" >       48        4        9       13       14 </v>
   <v type="int" >       48        5       10       11       12 </v>
   <v type="int" >       48        5        6       11       12 </v>
   <v type="int" >       48        5       10       12       13 </v>
   <v type="int" >       48        6       11       11       12 </v>
   <v type="int" >       24        7        8        8       16 </v>
   <v type="int" >       24        7        8        8       15 </v>
   <v type="int" >       48        8       16       17       32 </v>
   <v type="int" >       48        8        9       17       32 </v>
   <v type="int" >       48        8        9       14       32 </v>
   <v type="int" >       24        8        8       16       32 </v>
   <v type="int" >       24        8        8       15       32 </v>
   <v type="int" >       48        8       14       15       32 </v>
   <v type="int" >       48        9       17       18       33 </v>
   <v type="int" >       48        9       10       18       33 </v>
   <v type="int" >       48        9       10       13       33 </v>
   <v type="int" >       48        9       17       32       33 </v>
   <v type="int" >       48        9       14       32       33 </v>
   <v type="int" >       48        9       13       14       33 </v>
   <v type="int" >       48       10       18       19       34 </v>
   <v type="int" >       48       10       11       19       34 </v>
   <v type="int" >       48       10       11       12       34 </v>
   <v type="int" >       48       10       18       33       34 </v>
   <v type="int" >       48       10       13       33       34 </v>
   <v type="int" >       48       10       12       13       34 </v>
   <v type="int" >       48       11       19       20       35 </v>
   <v type="int" >       48       11       12       20       35 </v>
   <v type="int" >       48       11       11       12       35 </v>
   <v type="int" >       48       11       19       34       35 </v>
   <v type="int" >       48       11       12       34       35 </v>
   <v type="int" >       48       12       20       21       34 </v>
   <v type="int" >       48       12       13       21       34 </v>
   <v type="int" >       48       12       20       34       35 </v>
   <v type="int" >       48       13       21       22       33 </v>
   <v type="int" >       48       13       14       22       33 </v>
   <v type="int" >       48       13       21       33       34 </v>
   <v type="int" >       24       14       14       22       32 </v>
   <v type="int" >       24       14       14       15       32 </v>
   <v type="int" >       48       14       22       32       33 </v>
   <v type="int" >       24       16       17       17       23 </v>
   <v type="int" >       24       16       17       17       32 </v>
   <v type="int" >       48       17       23       24       36 </v>
   <v type="int" >       48       17       18       24       36 </v>
   <v type="int" >       48       17       18       33       36 </v>
   <v type="int" >       24       17       17       23       36 </v>
   <v type="int" >       24       17       17       32       36 </v>
   <v type="int" >       48       17       32       33       36 </v>
   <v type="int" >       48       18       24       25       37 </v>
   <v type="int" >       48       18       19       25       37 </v>
   <v type="int" >       48       18       19       34       37 </v>
   <v type="int" >       48       18       24       36       37 </v>
   <v type="int" >       48       18       33       36       37 </v>
   <v type="int" >       48       18       33       34       37 </v>
   <v type="int" >       48       19       25       26       38 </v>
   <v type="int" >       48       19       20       26       38 </v>
   <v type="int" >       48       19       20       35       38 </v>
   <v type="int" >       48       19       25       37       38 </v>
   <v type="int" >       48       19       34       37       38 </v>
   <v type="int" >       48       19       34       35       38 </v>
   <v type="int" >       48       20       26       27       39 </v>
   <v type="int" >       48       20       21       27       39 </v>
   <v type="int" >       48       20       21       34       39 </v>
   <v type="int" >       48       20       26       38       39 </v>
   <v type="int" >       48       20       35       38       39 </v>
   <v type="int" >       48       20       34       35       39 </v>
   <v type="int" >       24       21       21       27       40 </v>
   <v type="int" >       24       21       21       22       40 </v>
   <v type="int" >       48       21       22       33       40 </v>
   <v type="int" >       48       21       27       39       40 </v>
   <v type="int" >       48       21       34       39       40 </v>
   <v type="int" >       48       21       33       34       40 </v>
   <v type="int" >       24       22       33       33       40 </v>
   <v type="int" >       24       22       32       33       33 </v>
   <v type="int" >       24       23       24       24       28 </v>
   <v type="int" >       24       23       24       24       36 </v>
   <v type="int" >       48       24       28       29       41 </v>
   <v type="int" >       48       24       25       29       41 </v>
   <v type="int" >       48       24       25       37       41 </v>
   <v type="int" >       24       24       24       28       41 </v>
   <v type="int" >       24       24       24       36       41 </v>
   <v type="int" >       48       24       36       37       41 </v>
   <v type="int" >       48       25       29       30       42 </v>
   <v type="int" >       48       25       26       30       42 </v>
   <v type="int" >       48       25       26       38       42 </v>
   <v type="int" >       48       25       29       41       42 </v>
   <v type="int" >       48       25       37       41       42 </v>
   <v type="int" >       48       25       37       38       42 </v>
   <v type="int" >       24       26       26       30       43 </v>
   <v type="int" >       24       26       26       27       43 </v>
   <v type="int" >       48       26       27       39       43 </v>
   <v type="int" >       48       26       30       42       43 </v>
   <v type="int" >       48       26       38       42       43 </v>
   <v type="int" >       48       26       38       39       43 </v>
   <v type="int" >       24       27       39       39       43 </v>
   <v type="int" >       24       27       39       39       40 </v>
   <v type="int" >       24       28       29       29       31 </v>
   <v type="int" >       24       28       29       29       41 </v>
   <v type="int" >       48       29       29       31       44 </v>
   <v type="int" >       24       29       29       30       44 </v>
   <v type="int" >       48       29       30       42       44 </v>
   <v type="int" >       24       29       29       41       44 </v>
   <v type="int" >       48       29       41       42       44 </v>
   <v type="int" >       24       30       42       42       44 </v>
   <v type="int" >       24       30       42       42       43 </v>
   <v type="int" >       24       32       33       33       36 </v>
   <v type="int" >       48       33       36       37       40 </v>
   <v type="int" >       48       33       34       37       40 </v>
   <v type="int" >       24       33       33       36       40 </v>
   <v type="int" >       48       34       37       38       39 </v>
   <v type="int" >       48       34       35       38       39 </v>
   <v type="int" >       48       34       37       39       40 </v>
   <v type="int" >       48       35       38       38       39 </v>
   <v type="int" >       24       36       37       37       41 </v>
   <v type="int" >       24       36       37       37       40 </v>
   <v type="int" >       48       37       41       42       45 </v>
   <v type="int" >       48       37       38       42       45 </v>
   <v type="int" >       48       37       38       39       45 </v>
   <v type="int" >       24       37       37       41       45 </v>
   <v type="int" >       24       37       37       40       45 </v>
   <v type="int" >       48       37       39       40       45 </v>
   <v type="int" >       48       38       42       43       46 </v>
   <v type="int" >       48       38       39       43       46 </v>
   <v type="int" >       48       38       38       39       46 </v>
   <v type="int" >       48       38       42       45       46 </v>
   <v type="int" >       48       38       39       45       46 </v>
   <v type="int" >       24       39       39       43       45 </v>
   <v type="int" >       24       39       39       40       45 </v>
   <v type="int" >       48       39       43       45       46 </v>
   <v type="int" >       24       41       42       42       44 </v>
   <v type="int" >       24       41       42       42       45 </v>
   <v type="int" >       48       42       42       44       47 </v>
   <v type="int" >       24       42       42       43       47 </v>
   <v type="int" >       48       42       43       46       47 </v>
   <v type="int" >       24       42       42       45       47 </v>
   <v type="int" >       48       42       45       46       47 </v>
   <v type="int" >       24       43       46       46       47 </v>
   <v type="int" >       24       43       45       46       46 </v>
   <v type="int" >       24       45       46       46       47 </v>
   <v type="int" >       24       46       46       47       47 </v>
  </varray>
  <i name="volumeweight">      0.00016667 </i>
 </kpoints>
 <parameters>
  <separator name="general" >
   <i type="string" name="SYSTEM">unknown system</i>
   <i type="logical" name="LCOMPAT"> F  </i>
  </separator>
  <separator name="electronic" >
   <i type="string" name="PREC">accura</i>
   <i name="ENMAX">    680.00000000</i>
   <i name="ENAUG">   1360.00000000</i>
   <i name="EDIFF">      0.00001000</i>
   <i type="int" name="IALGO">    38</i>
   <i type="int" name="IWAVPR">    11</i>
   <i type="int" name="NBANDS">     9</i>
   <i type="int" name="NBANDSLOW">    -1</i>
   <i type="int" name="NBANDSHIGH">    -1</i>
   <i name="NELECT">      8.00000000</i>
   <i type="int" name="TURBO">     0</i>
   <i type="int" name="IRESTART">     0</i>
   <i type="int" name="NREBOOT">     0</i>
   <i type="int" name="NMIN">     0</i>
   <i name="EREF">      0.00000000</i>
   <separator name="electronic smearing" >
    <i type="int" name="ISMEAR">    -5</i>
    <i name="SIGMA">      0.20000000</i>
    <i name="KSPACING">      0.22000000</i>
    <i type="logical" name="KGAMMA"> T  </i>
    <i type="logical" name="KBLOWUP"> T  </i>
   </separator>
   <separator name="electronic projectors" >
    <i type="logical" name="LREAL"> T  </i>
    <v name="ROPT">     -0.00025000</v>
    <i type="int" name="LMAXPAW">  -100</i>
    <i type="int" name="LMAXMIX">     2</i>
    <i type="logical" name="NLSPLINE"> F  </i>
   </separator>
   <separator name="electronic startup" >
    <i type="int" name="ISTART">     0</i>
    <i type="int" name="ICHARG">     2</i>
    <i type="int" name="INIWAV">     1</i>
   </separator>
   <separator name="electronic spin" >
    <i type="int" name="ISPIN">     2</i>
    <i type="logical" name="LNONCOLLINEAR"> F  </i>
    <v name="MAGMOM">      0.60000000      0.60000000</v>
    <i name="NUPDOWN">     -1.00000000</i>
    <i type="logical" name="LSORBIT"> F  </i>
    <v name="SAXIS">      0.00000000      0.00000000      1.00000000</v>
    <i type="logical" name="LSPIRAL"> F  </i>
    <v name="QSPIRAL">      0.00000000      0.00000000      0.00000000</v>
    <i type="logical" name="LZEROZ"> F  </i>
   </separator>
   <separator name="electronic exchange-correlation" >
    <i type="logical" name="LASPH"> T  </i>
    <i type="logical" name="LMETAGGA"> F  </i>
   </separator>
   <separator name="electronic convergence" >
    <i type="int" name="NELM">   200</i>
    <i type="int" name="NELMDL">    -5</i>
    <i type="int" name="NELMIN">     2</i>
    <i name="ENINI">    680.00000000</i>
    <separator name="electronic convergence detail" >
     <i type="logical" name="LDIAG"> T  </i>
     <i type="logical" name="LSUBROT"> F  </i>
     <i name="WEIMIN">      0.00100000</i>
     <i name="EBREAK">      0.00000028</i>
     <i name="DEPER">      0.30000000</i>
     <i type="int" name="NRMM">     4</i>
     <i name="TIME">      0.40000000</i>
    </separator>
   </separator>
   <separator name="electronic mixer" >
    <i name="AMIX">      0.40000000</i>
    <i name="BMIX">      1.00000000</i>
    <i name="AMIN">      0.10000000</i>
    <i name="AMIX_MAG">      1.60000000</i>
    <i name="BMIX_MAG">      1.00000000</i>
    <separator name="electronic mixer details" >
     <i type="int" name="IMIX">     4</i>
     <i type="logical" name="MIXFIRST"> F  </i>
     <i type="int" name="MAXMIX">   -45</i>
     <i name="WC">    100.00000000</i>
     <i type="int" name="INIMIX">     1</i>
     <i type="int" name="MIXPRE">     1</i>
     <i type="int" name="MREMOVE">     5</i>
    </separator>
   </separator>
   <separator name="electronic dipolcorrection" >
    <i type="logical" name="LDIPOL"> F  </i>
    <i type="logical" name="LMONO"> F  </i>
    <i type="int" name="IDIPOL">     0</i>
    <i name="EPSILON">      1.00000000</i>
    <v name="DIPOL">   -100.00000000   -100.00000000   -100.00000000</v>
    <i name="EFIELD">      0.00000000</i>
   </separator>
  </separator>
  <separator name="grids" >
   <i type="int" name="NGX">    36</i>
   <i type="int" name="NGY">    36</i>
   <i type="int" name="NGZ">    36</i>
   <i type="int" name="NGXF">    72</i>
   <i type="int" name="NGYF">    72</i>
   <i type="int" name="NGZF">    72</i>
   <i type="logical" name="ADDGRID"> F  </i>
  </separator>
  <separator name="ionic" >
   <i type="int" name="NSW">     1</i>
   <i type="int" name="IBRION">     2</i>
   <i type="int" name="MDALGO">     0</i>
   <i type="int" name="ISIF">     3</i>
   <i name="PSTRESS">      0.00000000</i>
   <i name="EDIFFG">     -0.02000000</i>
   <i type="int" name="NFREE">     1</i>
   <i name="POTIM">      0.50000000</i>
   <i name="SMASS">     -3.00000000</i>
   <i name="SCALEE">      1.00000000</i>
  </separator>
  <separator name="ionic md" >
   <i name="TEBEG">      0.00010000</i>
   <i name="TEEND">      0.00010000</i>
   <i type="int" name="NBLOCK">     1</i>
   <i type="int" name="KBLOCK">     1</i>
   <i type="int" name="NPACO">   256</i>
   <i name="APACO">     16.00000000</i>
  </separator>
  <separator name="symmetry" >
   <i type="int" name="ISYM">     2</i>
   <i name="SYMPREC">      0.00001000</i>
  </separator>
  <separator name="dos" >
   <i type="int" name="LORBIT">    11</i>
   <v name="RWIGS">     -1.00000000</v>
   <i type="int" name="NEDOS">   301</i>
   <i name="EMIN">     10.00000000</i>
   <i name="EMAX">    -10.00000000</i>
   <i name="EFERMI">      0.00000000</i>
  </separator>
  <separator name="writing" >
   <i type="int" name="NWRITE">     2</i>
   <i type="logical" name="LWAVE"> F  </i>
   <i type="logical" name="LDOWNSAMPLE"> F  </i>
   <i type="logical" name="LCHARG"> T  </i>
   <i type="logical" name="LPARD"> F  </i>
   <i type="logical" name="LVTOT"> T  </i>
   <i type="logical" name="LVHAR"> F  </i>
   <i type="logical" name="LELF"> T  </i>
   <i type="logical" name="LOPTICS"> F  </i>
   <v name="STM">      0.00000000      0.00000000      0.00000000      0.00000000      0.00000000      0.00000000      0.00000000</v>
  </separator>
  <separator name="performance" >
   <i type="int" name="NPAR">     1</i>
   <i type="int" name="NSIM">     4</i>
   <i type="int" name="NBLK">    -1</i>
   <i type="logical" name="LPLANE"> T  </i>
   <i type="logical" name="LSCALAPACK"> F  </i>
   <i type="logical" name="LSCAAWARE"> F  </i>
   <i type="logical" name="LSCALU"> F  </i>
   <i type="logical" name="LASYNC"> F  </i>
   <i type="logical" name="LORBITALREAL"> F  </i>
  </separator>
  <separator name="miscellaneous" >
   <i type="int" name="IDIOT">     3</i>
   <i type="int" name="PHON_NSTRUCT">    -1</i>
   <i type="logical" name="LMUSIC"> F  </i>
   <v name="POMASS">     28.08500000</v>
   <v name="DARWINR">      0.00000000</v>
   <v name="DARWINV">      1.00000000</v>
   <i type="logical" name="LCORR"> T  </i>
  </separator>
  <i type="logical" name="GGA_COMPAT"> T  </i>
  <i type="logical" name="LBERRY"> F  </i>
  <i type="int" name="ICORELEVEL">     0</i>
  <i type="logical" name="LDAU"> F  </i>
  <i type="int" name="I_CONSTRAINED_M">     0</i>
  <separator name="electronic exchange-correlation" >
   <i type="string" name="GGA">--</i>
   <i type="int" name="VOSKOWN">     0</i>
   <i type="logical" name="LHFCALC"> F  </i>
   <i type="string" name="PRECFOCK"></i>
   <i type="logical" name="LSYMGRAD"> F  </i>
   <i type="logical" name="LHFONE"> F  </i>
   <i type="logical" name="LRHFCALC"> F  </i>
   <i type="logical" name="LTHOMAS"> F  </i>
   <i type="logical" name="LMODELHF"> F  </i>
   <i type="logical" name="LFOCKACE"> F  </i>
   <i name="ENCUT4O">     -1.00000000</i>
   <i type="int" name="EXXOEP">     0</i>
   <i type="int" name="FOURORBIT">     0</i>
   <i name="AEXX">      0.00000000</i>
   <i name="HFALPHA">      0.00000000</i>
   <i name="MCALPHA">      0.00000000</i>
   <i name="ALDAX">      1.00000000</i>
   <i name="AGGAX">      1.00000000</i>
   <i name="ALDAC">      1.00000000</i>
   <i name="AGGAC">      1.00000000</i>
   <i type="int" name="NKREDX">     1</i>
   <i type="int" name="NKREDY">     1</i>
   <i type="int" name="NKREDZ">     1</i>
   <i type="logical" name="SHIFTRED"> F  </i>
   <i type="logical" name="ODDONLY"> F  </i>
   <i type="logical" name="EVENONLY"> F  </i>
   <i type="int" name="LMAXFOCK">     0</i>
   <i type="int" name="NMAXFOCKAE">     0</i>
   <i type="logical" name="LFOCKAEDFT"> F  </i>
   <i name="HFSCREEN">      0.00000000</i>
   <i name="HFSCREENC">      0.00000000</i>
   <i type="int" name="NBANDSGWLOW">     0</i>
  </separator>
  <separator name="vdW DFT" >
   <i type="logical" name="LUSE_VDW"> F  </i>
   <i name="Zab_VDW">     -0.84910000</i>
   <i name="PARAM1">      0.12340000</i>
   <i name="PARAM2">      1.00000000</i>
   <i name="PARAM3">      0.00000000</i>
  </separator>
  <separator name="model GW" >
   <i type="int" name="MODEL_GW">     0</i>
   <i name="MODEL_EPS0">     12.26648953</i>
   <i name="MODEL_ALPHA">      1.00000000</i>
  </separator>
  <separator name="linear response parameters" >
   <i type="logical" name="LEPSILON"> F  </i>
   <i type="logical" name="LRPA"> F  </i>
   <i type="logical" name="LNABLA"> F  </i>
   <i type="logical" name="LVEL"> F  </i>
   <i type="int" name="KINTER">     0</i>
   <i name="CSHIFT">      0.10000000</i>
   <i name="OMEGAMAX">     -1.00000000</i>
   <i name="DEG_THRESHOLD">      0.00200000</i>
   <i name="RTIME">     -0.10000000</i>
   <i name="WPLASMAI">      0.00000000</i>
   <v name="DFIELD">      0.00000000      0.00000000      0.00000000</v>
   <v name="WPLASMA">      0.00000000      0.00000000      0.00000000      0.00000000      0.00000000      0.00000000      0.00000000      0.00000000      0.00000000</v>
  </separator>
  <separator name="orbital magnetization" >
   <i type="logical" name="NUCIND"> F  </i>
   <v name="MAGPOS">      0.00000000      0.00000000      0.00000000</v>
   <i type="logical" name="LNICSALL"> T  </i>
   <i type="logical" name="ORBITALMAG"> F  </i>
   <i type="logical" name="LMAGBLOCH"> F  </i>
   <i type="logical" name="LCHIMAG"> F  </i>
   <i type="logical" name="LGAUGE"> T  </i>
   <i type="int" name="MAGATOM">     0</i>
   <v name="MAGDIPOL">      0.00000000      0.00000000      0.00000000</v>
   <v name="AVECCONST">      0.00000000      0.00000000      0.00000000</v>
  </separator>
  <separator name="response functions" >
   <i type="logical" name="LFINITE_TEMPERATURE"> F  </i>
   <i type="logical" name="LADDER"> F  </i>
   <i type="logical" name="LRPAFORCE"> F  </i>
   <i type="logical" name="LFXC"> F  </i>
   <i type="logical" name="LHARTREE"> T  </i>
   <i type="int" name="IBSE">     0</i>
   <v type="int" name="KPOINT">    -1     0     0     0</v>
   <i type="logical" name="LTCTC"> F  </i>
   <i type="logical" name="LTCTE"> F  </i>
   <i type="logical" name="LTETE"> F  </i>
   <i type="logical" name="LTRIPLET"> F  </i>
   <i type="logical" name="LFXCEPS"> F  </i>
   <i type="logical" name="LFXHEG"> F  </i>
   <i type="int" name="NATURALO">     2</i>
   <i type="logical" name="LHOLEGF"> F  </i>
   <i type="logical" name="L2ORDER"> F  </i>
   <i type="logical" name="LDMP1"> F  </i>
   <i type="logical" name="LMP2LT"> F  </i>
   <i type="logical" name="LSMP2LT"> F  </i>
   <i type="logical" name="LGWLF"> F  </i>
   <i name="ENCUTGW">     -2.00000000</i>
   <i name="ENCUTGWSOFT">     -2.00000000</i>
   <i name="ENCUTLF">     -1.00000000</i>
   <i type="logical" name="LESF_SPLINES"> F  </i>
   <i type="int" name="LMAXMP2">    -1</i>
   <i name="SCISSOR">      0.00000000</i>
   <i type="int" name="NOMEGA">     0</i>
   <i type="int" name="NOMEGAR">     0</i>
   <i type="int" name="NBANDSGW">    -1</i>
   <i type="int" name="NBANDSO">    -1</i>
   <i type="int" name="NBANDSV">    -1</i>
   <i type="int" name="NELM">   200</i>
   <i type="int" name="NELMHF">     1</i>
   <i type="int" name="DIM">     3</i>
   <i type="int" name="IESPILON">     4</i>
   <i type="int" name="ANTIRES">     0</i>
   <i name="OMEGAMAX">    -30.00000000</i>
   <i name="OMEGAMIN">    -30.00000000</i>
   <i name="OMEGATL">   -200.00000000</i>
   <i type="int" name="OMEGAGRID">     0</i>
   <i name="CSHIFT">     -0.10000000</i>
   <i type="logical" name="LSELFENERGY"> F  </i>
   <i type="logical" name="LSPECTRAL"> F  </i>
   <i type="logical" name="LSPECTRALGW"> F  </i>
   <i type="logical" name="LSINGLES"> F  </i>
   <i type="logical" name="LFERMIGW"> F  </i>
   <i type="logical" name="ODDONLYGW"> F  </i>
   <i type="logical" name="EVENONLYGW"> F  </i>
   <i type="int" name="NKREDLFX">     1</i>
   <i type="int" name="NKREDLFY">     1</i>
   <i type="int" name="NKREDLFZ">     1</i>
   <i type="int" name="MAXMEM">  2800</i>
   <i type="int" name="TELESCOPE">     0</i>
   <i type="int" name="NTAUPAR">    -1</i>
   <i type="int" name="NOMEGAPAR">    -1</i>
   <i name="DAMP_NEWTON">      0.80000001</i>
   <i name="LAMBDA">      1.00000000</i>
  </separator>
  <separator name="External order field" >
   <i name="OFIELD_KAPPA">      0.00000000</i>
   <v name="OFIELD_K">      0.00000000      0.00000000      0.00000000</v>
   <i name="OFIELD_Q6_NEAR">      0.00000000</i>
   <i name="OFIELD_Q6_FAR">      0.00000000</i>
   <i name="OFIELD_A">      0.00000000</i>
  </separator>
 </parameters>
 <atominfo>
  <atoms>       2 </atoms>
  <types>       1 </types>
  <array name="atoms" >
   <dimension dim="1">ion</dimension>
   <field type="string">element</field>
   <field type="int">atomtype</field>
   <set>
    <rc><c>Si</c><c>   1</c></rc>
    <rc><c>Si</c><c>   1</c></rc>
   </set>
  </array>
  <array name="atomtypes" >
   <dimension dim="1">type</dimension>
   <field type="int">atomspertype</field>
   <field type="string">element</field>
   <field>mass</field>
   <field>valence</field>
   <field type="string">pseudopotential</field>
   <set>
    <rc><c>   2</c><c>Si</c><c>     28.08500000</c><c>      4.00000000</c><c>  PAW_PBE Si 05Jan2001                  </c></rc>
   </set>
  </array>
 </atominfo>
 <structure name="initialpos" >
  <crystal>
   <varray name="basis" >
    <v>       3.34889800       0.00000000       1.93348700 </v>
    <v>       1.11629900       3.15737200       1.93348700 </v>
    <v>       0.00000000       0.00000000       3.86697500 </v>
   </varray>
   <i name="volume">     40.88829843 </i>
   <varray name="rec_basis" >
    <v>       0.29860569      -0.10557300       0.00000000 </v>
    <v>       0.00000000       0.31671909       0.00000000 </v>
    <v>      -0.14930281      -0.10557302       0.25860007 </v>
   </varray>
  </crystal>
  <varray name="positions" >
   <v>       0.25000000       0.25000000       0.25000000 </v>
   <v>       0.00000000       0.00000000       0.00000000 </v>
  </varray>
 </structure>
 <calculation>
  <scstep>
   <time name="dav">    2.18    2.32</time>
   <time name="total">    2.42    2.57</time>
   <energy>
    <i name="alphaZ">      3.29317992 </i>
    <i name="ewald">   -226.94489173 </i>
    <i name="hartreedc">    -11.32339116 </i>
    <i name="XCdc">    -18.60569953 </i>
    <i name="pawpsdc">    176.18363791 </i>
    <i name="pawaedc">   -140.99252705 </i>
    <i name="eentropy">      0.00000000 </i>
    <i name="bandstr">     21.72513423 </i>
    <i name="atom">    206.13322186 </i>
    <i name="e_fr_energy">      9.46866445 </i>
    <i name="e_wo_entrp">      9.46866445 </i>
    <i name="e_0_energy">      9.46866445 </i>
   </energy>
  </scstep>
  <scstep>
   <time name="dav">    2.20    2.21</time>
   <time name="total">    2.20    2.21</time>
   <energy>
    <i name="e_fr_energy">    -10.37353947 </i>
    <i name="e_wo_entrp">    -10.37353947 </i>
    <i name="e_0_energy">    -10.37353947 </i>
   </energy>
  </scstep>
  <scstep>
   <time name="dav">    2.22    2.29</time>
   <time name="total">    2.22    2.29</time>
   <energy>
    <i name="e_fr_energy">    -10.82919764 </i>
    <i name="e_wo_entrp">    -10.82919764 </i>
    <i name="e_0_energy">    -10.82919764 </i>
   </energy>
  </scstep>
  <scstep>
   <time name="dav">    2.51    2.53</time>
   <time name="total">    2.51    2.54</time>
   <energy>
    <i name="e_fr_energy">    -10.83251387 </i>
    <i name="e_wo_entrp">    -10.83251387 </i>
    <i name="e_0_energy">    -10.83251387 </i>
   </energy>
  </scstep>
  <scstep>
   <time name="dav">    2.32    2.33</time>
   <time name="total">    2.40    2.41</time>
   <energy>
    <i name="e_fr_energy">    -10.83252772 </i>
    <i name="e_wo_entrp">    -10.83252772 </i>
    <i name="e_0_energy">    -10.83252772 </i>
   </energy>
  </scstep>
  <scstep>
   <time name="dav">    1.66    1.67</time>
   <time name="total">    2.03    2.04</time>
   <energy>
    <i name="e_fr_energy">    -10.89078265 </i>
    <i name="e_wo_entrp">    -10.89078265 </i>
    <i name="e_0_energy">    -10.89078265 </i>
   </energy>
  </scstep>
  <scstep>
   <time name="dav">    1.77    1.79</time>
   <time name="total">    2.16    2.20</time>
   <energy>
    <i name="e_fr_energy">    -10.83373409 </i>
    <i name="e_wo_entrp">    -10.83373409 </i>
    <i name="e_0_energy">    -10.83373409 </i>
   </energy>
  </scstep>
  <scstep>
   <time name="dav">    1.79    1.86</time>
   <time name="total">    2.09    2.16</time>
   <energy>
    <i name="e_fr_energy">    -10.84801034 </i>
    <i name="e_wo_entrp">    -10.84801034 </i>
    <i name="e_0_energy">    -10.84801034 </i>
   </energy>
  </scstep>
  <scstep>
   <time name="dav">    1.95    1.95</time>
   <time name="total">    2.27    2.28</time>
   <energy>
    <i name="e_fr_energy">    -10.84986022 </i>
    <i name="e_wo_entrp">    -10.84986022 </i>
    <i name="e_0_energy">    -10.84986022 </i>
   </energy>
  </scstep>
  <scstep>
   <time name="dav">    1.73    1.73</time>
   <time name="total">    2.06    2.07</time>
   <energy>
    <i name="e_fr_energy">    -10.85028939 </i>
    <i name="e_wo_entrp">    -10.85028939 </i>
    <i name="e_0_energy">    -10.85028939 </i>
   </energy>
  </scstep>
  <scstep>
   <time name="dav">    1.89    1.90</time>
   <time name="total">    2.24    2.25</time>
   <energy>
    <i name="e_fr_energy">    -10.85035176 </i>
    <i name="e_wo_entrp">    -10.85035176 </i>
    <i name="e_0_energy">    -10.85035176 </i>
   </energy>
  </scstep>
  <scstep>
   <time name="dav">    1.65    1.66</time>
   <time name="total">    1.99    2.00</time>
   <energy>
    <i name="e_fr_energy">    -10.85036779 </i>
    <i name="e_wo_entrp">    -10.85036779 </i>
    <i name="e_0_energy">    -10.85036779 </i>
   </energy>
  </scstep>
  <scstep>
   <time name="dav">    1.23    1.24</time>
   <time name="total">    1.49    1.50</time>
   <energy>
    <i name="alphaZ">      3.29317992 </i>
    <i name="ewald">   -226.94489173 </i>
    <i name="hartreedc">    -15.17317274 </i>
    <i name="XCdc">    -18.06135957 </i>
    <i name="pawpsdc">    828.33961384 </i>
    <i name="pawaedc">   -793.35835054 </i>
    <i name="eentropy">      0.00000000 </i>
    <i name="bandstr">      4.92138782 </i>
    <i name="atom">    206.13322186 </i>
    <i name="e_fr_energy">    -10.85037115 </i>
    <i name="e_wo_entrp">    -10.85037115 </i>
    <i name="e_0_energy">    -10.85037115 </i>
   </energy>
  </scstep>
  <structure>
   <crystal>
    <varray name="basis" >
     <v>       3.34889800       0.00000000       1.93348700 </v>
     <v>       1.11629900       3.15737200       1.93348700 </v>
     <v>       0.00000000       0.00000000       3.86697500 </v>
    </varray>
    <i name="volume">     40.88829843 </i>
    <varray name="rec_basis" >
     <v>       0.29860569      -0.10557300       0.00000000 </v>
     <v>       0.00000000       0.31671909       0.00000000 </v>
     <v>      -0.14930281      -0.10557302       0.25860007 </v>
    </varray>
   </crystal>
   <varray name="positions" >
    <v>       0.25000000       0.25000000       0.25000000 </v>
    <v>       0.00000000       0.00000000       0.00000000 </v>
   </varray>
  </structure>
  <varray name="forces" >
   <v>       0.00000000      -0.00000000       0.00000000 </v>
   <v>      -0.00000000       0.00000000      -0.00000000 </v>
  </varray>
  <varray name="stress" >
   <v>      -0.07625625       0.00000001       0.00000001 </v>
   <v>       0.00000001      -0.07625628       0.00000001 </v>
   <v>       0.00000001       0.00000001      -0.07625627 </v>
  </varray>
  <energy>
   <i name="e_fr_energy">    -10.85037115 </i>
   <i name="e_wo_entrp">    -10.85037115 </i>
   <i name="e_0_energy">    -10.85037115 </i>
  </energy>
  <time name="totalsc">   31.08   31.54</time>
  <eigenvalues>
   <array>
    <dimension dim="1">band</dimension>
    <dimension dim="2">kpoint</dimension>
    <dimension dim="3">spin</dimension>
    <field>eigene</field>
    <field>occ</field>
    <set>
     <set comment="spin 1">
      <set comment="kpoint 1">
       <r>   -6.1987    1.0000 </r>
       <r>    5.6163    1.0000 </r>
       <r>    5.6163    1.0000 </r>
       <r>    5.6163    1.0000 </r>
       <r>    8.1731    0.0000 </r>
       <r>    8.1731    0.0000 </r>
       <r>    8.1731    0.0000 </r>
       <r>    8.7494    0.0000 </r>
       <r>   13.3254    0.0000 </r>
      </set>
      <set comment="kpoint 2">
       <r>   -6.0701    1.0000 </r>
       <r>    4.4742    1.0000 </r>
       <r>    5.4225    1.0000 </r>
       <r>    5.4225    1.0000 </r>
       <r>    8.1388    0.0000 </r>
       <r>    8.4589    0.0000 </r>
       <r>    8.4589    0.0000 </r>
       <r>    9.7197    0.0000 </r>
       <r>   12.9756    0.0000 </r>
      </set>
      <set comment="kpoint 3">
       <r>   -5.6907    1.0000 </r>
       <r>    2.6343    1.0000 </r>
       <r>    5.0488    1.0000 </r>
       <r>    5.0488    1.0000 </r>
       <r>    7.7684    0.0000 </r>
       <r>    8.9607    0.0000 </r>
       <r>    8.9607    0.0000 </r>
       <r>   11.4943    0.0000 </r>
       <r>   12.6649    0.0000 </r>
      </set>
      <set comment="kpoint 4">
       <r>   -5.0873    1.0000 </r>
       <r>    0.8762    1.0000 </r>
       <r>    4.7187    1.0000 </r>
       <r>    4.7187    1.0000 </r>
       <r>    7.4047    0.0000 </r>
       <r>    9.1413    0.0000 </r>
       <r>    9.1413    0.0000 </r>
       <r>   13.1163    0.0000 </r>
       <r>   13.1905    0.0000 </r>
      </set>
      <set comment="kpoint 5">
       <r>   -4.3576    1.0000 </r>
       <r>   -0.5721    1.0000 </r>
       <r>    4.5089    1.0000 </r>
       <r>    4.5089    1.0000 </r>
       <r>    7.1647    0.0000 </r>
       <r>    9.0368    0.0000 </r>
       <r>    9.0368    0.0000 </r>
       <r>   13.4205    0.0000 </r>
       <r>   14.5528    0.0000 </r>
      </set>
      <set comment="kpoint 6">
       <r>   -3.9200    1.0000 </r>
       <r>   -1.2525    1.0000 </r>
       <r>    4.4380    1.0000 </r>
       <r>    4.4380    1.0000 </r>
       <r>    7.0824    0.0000 </r>
       <r>    8.9657    0.0000 </r>
       <r>    8.9657    0.0000 </r>
       <r>   13.3175    0.0000 </r>
       <r>   16.1114    0.0000 </r>
      </set>
      <set comment="kpoint 7">
       <r>   -6.0269    1.0000 </r>
       <r>    4.6606    1.0000 </r>
       <r>    5.0549    1.0000 </r>
       <r>    5.0549    1.0000 </r>
       <r>    7.8013    0.0000 </r>
       <r>    8.9455    0.0000 </r>
       <r>    8.9455    0.0000 </r>
       <r>    9.6042    0.0000 </r>
       <r>   12.3529    0.0000 </r>
      </set>
      <set comment="kpoint 8">
       <r>   -5.7299    1.0000 </r>
       <r>    3.1747    1.0000 </r>
       <r>    4.6284    1.0000 </r>
       <r>    4.7863    1.0000 </r>
       <r>    7.8554    0.0000 </r>
       <r>    8.9544    0.0000 </r>
       <r>    9.5892    0.0000 </r>
       <r>   10.5288    0.0000 </r>
       <r>   12.3086    0.0000 </r>
      </set>
      <set comment="kpoint 9">
       <r>   -5.1966    1.0000 </r>
       <r>    1.4439    1.0000 </r>
       <r>    4.3141    1.0000 </r>
       <r>    4.3584    1.0000 </r>
       <r>    7.9633    0.0000 </r>
       <r>    8.9578    0.0000 </r>
       <r>    9.8761    0.0000 </r>
       <r>   10.9179    0.0000 </r>
       <r>   13.7393    0.0000 </r>
      </set>
      <set comment="kpoint 10">
       <r>   -4.4881    1.0000 </r>
       <r>   -0.1002    1.0000 </r>
       <r>    3.9533    1.0000 </r>
       <r>    4.1676    1.0000 </r>
       <r>    7.8064    0.0000 </r>
       <r>    8.9459    0.0000 </r>
       <r>    9.7124    0.0000 </r>
       <r>   11.9627    0.0000 </r>
       <r>   14.5223    0.0000 </r>
      </set>
      <set comment="kpoint 11">
       <r>   -3.8652    1.0000 </r>
       <r>   -1.1132    1.0000 </r>
       <r>    3.6688    1.0000 </r>
       <r>    4.1983    1.0000 </r>
       <r>    7.7130    0.0000 </r>
       <r>    8.9266    0.0000 </r>
       <r>    9.4556    0.0000 </r>
       <r>   13.3557    0.0000 </r>
       <r>   14.4706    0.0000 </r>
      </set>
      <set comment="kpoint 12">
       <r>   -4.0272    1.0000 </r>
       <r>   -0.8709    1.0000 </r>
       <r>    3.5448    1.0000 </r>
       <r>    4.3932    1.0000 </r>
       <r>    7.7677    0.0000 </r>
       <r>    9.0609    0.0000 </r>
       <r>    9.3027    0.0000 </r>
       <r>   13.6071    0.0000 </r>
       <r>   14.1730    0.0000 </r>
      </set>
      <set comment="kpoint 13">
       <r>   -4.7379    1.0000 </r>
       <r>    0.3841    1.0000 </r>
       <r>    3.6070    1.0000 </r>
       <r>    4.7210    1.0000 </r>
       <r>    7.9671    0.0000 </r>
       <r>    9.2256    0.0000 </r>
       <r>    9.3043    0.0000 </r>
       <r>   12.5466    0.0000 </r>
       <r>   12.6690    0.0000 </r>
      </set>
      <set comment="kpoint 14">
       <r>   -5.4001    1.0000 </r>
       <r>    2.0036    1.0000 </r>
       <r>    3.8824    1.0000 </r>
       <r>    5.1195    1.0000 </r>
       <r>    8.2747    0.0000 </r>
       <r>    8.9728    0.0000 </r>
       <r>    9.2997    0.0000 </r>
       <r>   11.4863    0.0000 </r>
       <r>   11.9761    0.0000 </r>
      </set>
      <set comment="kpoint 15">
       <r>   -5.8574    1.0000 </r>
       <r>    3.5893    1.0000 </r>
       <r>    4.4853    1.0000 </r>
       <r>    5.4410    1.0000 </r>
       <r>    8.5269    0.0000 </r>
       <r>    8.5276    0.0000 </r>
       <r>    8.7057    0.0000 </r>
       <r>   10.6654    0.0000 </r>
       <r>   12.2327    0.0000 </r>
      </set>
      <set comment="kpoint 16">
       <r>   -5.5156    1.0000 </r>
       <r>    2.9815    1.0000 </r>
       <r>    4.1620    1.0000 </r>
       <r>    4.1620    1.0000 </r>
       <r>    7.0923    0.0000 </r>
       <r>    9.4690    0.0000 </r>
       <r>   10.4574    0.0000 </r>
       <r>   10.4574    0.0000 </r>
       <r>   12.5548    0.0000 </r>
      </set>
      <set comment="kpoint 17">
       <r>   -5.0585    1.0000 </r>
       <r>    1.7591    1.0000 </r>
       <r>    3.6595    1.0000 </r>
       <r>    3.8197    1.0000 </r>
       <r>    7.1881    0.0000 </r>
       <r>    9.0607    0.0000 </r>
       <r>   10.7074    0.0000 </r>
       <r>   11.0456    0.0000 </r>
       <r>   14.0205    0.0000 </r>
      </set>
      <set comment="kpoint 18">
       <r>   -4.3967    1.0000 </r>
       <r>    0.3527    1.0000 </r>
       <r>    3.0394    1.0000 </r>
       <r>    3.6619    1.0000 </r>
       <r>    7.4029    0.0000 </r>
       <r>    9.6856    0.0000 </r>
       <r>   10.4766    0.0000 </r>
       <r>   11.0122    0.0000 </r>
       <r>   15.6683    0.0000 </r>
      </set>
      <set comment="kpoint 19">
       <r>   -3.6836    1.0000 </r>
       <r>   -0.8037    1.0000 </r>
       <r>    2.5380    1.0000 </r>
       <r>    3.7038    1.0000 </r>
       <r>    7.4666    0.0000 </r>
       <r>   10.2576    0.0000 </r>
       <r>   10.6949    0.0000 </r>
       <r>   11.2115    0.0000 </r>
       <r>   15.3050    0.0000 </r>
      </set>
      <set comment="kpoint 20">
       <r>   -3.5358    1.0000 </r>
       <r>   -1.0056    1.0000 </r>
       <r>    2.2468    1.0000 </r>
       <r>    3.9365    1.0000 </r>
       <r>    7.6743    0.0000 </r>
       <r>   10.1627    0.0000 </r>
       <r>   10.3967    0.0000 </r>
       <r>   13.1106    0.0000 </r>
       <r>   13.8861    0.0000 </r>
      </set>
      <set comment="kpoint 21">
       <r>   -4.1723    1.0000 </r>
       <r>   -0.0438    1.0000 </r>
       <r>    2.2322    1.0000 </r>
       <r>    4.3252    1.0000 </r>
       <r>    8.0564    0.0000 </r>
       <r>   10.1207    0.0000 </r>
       <r>   10.1776    0.0000 </r>
       <r>   12.2335    0.0000 </r>
       <r>   12.4286    0.0000 </r>
      </set>
      <set comment="kpoint 22">
       <r>   -4.8751    1.0000 </r>
       <r>    1.1696    1.0000 </r>
       <r>    2.6829    1.0000 </r>
       <r>    4.7853    1.0000 </r>
       <r>    8.4669    0.0000 </r>
       <r>    9.5818    0.0000 </r>
       <r>    9.8855    0.0000 </r>
       <r>   11.2727    0.0000 </r>
       <r>   11.7477    0.0000 </r>
      </set>
      <set comment="kpoint 23">
       <r>   -4.6772    1.0000 </r>
       <r>    1.2120    1.0000 </r>
       <r>    3.4341    1.0000 </r>
       <r>    3.4341    1.0000 </r>
       <r>    6.5053    0.0000 </r>
       <r>    8.0521    0.0000 </r>
       <r>   12.1875    0.0000 </r>
       <r>   12.1875    0.0000 </r>
       <r>   14.5235    0.0000 </r>
      </set>
      <set comment="kpoint 24">
       <r>   -4.0760    1.0000 </r>
       <r>    0.2234    1.0000 </r>
       <r>    2.8228    1.0000 </r>
       <r>    3.2325    1.0000 </r>
       <r>    6.6927   -0.0000 </r>
       <r>    7.8815    0.0000 </r>
       <r>   12.4714    0.0000 </r>
       <r>   12.6120    0.0000 </r>
       <r>   16.0307    0.0000 </r>
      </set>
      <set comment="kpoint 25">
       <r>   -3.3422    1.0000 </r>
       <r>   -0.7622    1.0000 </r>
       <r>    2.0130    1.0000 </r>
       <r>    3.2384    1.0000 </r>
       <r>    6.8740    0.0000 </r>
       <r>    8.9922    0.0000 </r>
       <r>   12.2856    0.0000 </r>
       <r>   12.3739    0.0000 </r>
       <r>   15.9686    0.0000 </r>
      </set>
      <set comment="kpoint 26">
       <r>   -2.9362    1.0000 </r>
       <r>   -1.2242    1.0000 </r>
       <r>    1.4723    1.0000 </r>
       <r>    3.4492    1.0000 </r>
       <r>    7.1020    0.0000 </r>
       <r>   10.7769    0.0000 </r>
       <r>   11.9785    0.0000 </r>
       <r>   12.1254    0.0000 </r>
       <r>   14.0303    0.0000 </r>
      </set>
      <set comment="kpoint 27">
       <r>   -3.4618    1.0000 </r>
       <r>   -0.6465    1.0000 </r>
       <r>    1.4478    1.0000 </r>
       <r>    3.8372    1.0000 </r>
       <r>    7.5344    0.0000 </r>
       <r>   11.3103    0.0000 </r>
       <r>   11.6210    0.0000 </r>
       <r>   12.3429    0.0000 </r>
       <r>   12.7049    0.0000 </r>
      </set>
      <set comment="kpoint 28">
       <r>   -3.5356    1.0000 </r>
       <r>   -0.5210    1.0000 </r>
       <r>    2.9771    1.0000 </r>
       <r>    2.9771    1.0000 </r>
       <r>    6.2336    0.0000 </r>
       <r>    6.9652    0.0000 </r>
       <r>   14.0168    0.0000 </r>
       <r>   14.0168    0.0000 </r>
       <r>   16.3687    0.0000 </r>
      </set>
      <set comment="kpoint 29">
       <r>   -2.8210    1.0000 </r>
       <r>   -1.3472    1.0000 </r>
       <r>    2.4081    1.0000 </r>
       <r>    2.9292    1.0000 </r>
       <r>    6.4694   -0.0000 </r>
       <r>    7.2148    0.0000 </r>
       <r>   14.2661    0.0000 </r>
       <r>   14.3428    0.0000 </r>
       <r>   16.3079    0.0000 </r>
      </set>
      <set comment="kpoint 30">
       <r>   -2.3603    1.0000 </r>
       <r>   -1.7570    1.0000 </r>
       <r>    1.6471    1.0000 </r>
       <r>    3.0930    1.0000 </r>
       <r>    6.6795    0.0000 </r>
       <r>    8.7648    0.0000 </r>
       <r>   13.6131    0.0000 </r>
       <r>   14.1880    0.0000 </r>
       <r>   14.1889    0.0000 </r>
      </set>
      <set comment="kpoint 31">
       <r>   -2.1302    1.0000 </r>
       <r>   -2.1302    1.0000 </r>
       <r>    2.8222    1.0000 </r>
       <r>    2.8222    1.0000 </r>
       <r>    6.3674    0.0000 </r>
       <r>    6.3674    0.0000 </r>
       <r>   15.5528    0.0000 </r>
       <r>   15.5528    0.0000 </r>
       <r>   16.5233    0.0000 </r>
      </set>
      <set comment="kpoint 32">
       <r>   -5.3535    1.0000 </r>
       <r>    2.2546    1.0000 </r>
       <r>    3.5834    1.0000 </r>
       <r>    4.6610    1.0000 </r>
       <r>    7.9610    0.0000 </r>
       <r>    9.2651    0.0000 </r>
       <r>   10.2142    0.0000 </r>
       <r>   10.2351    0.0000 </r>
       <r>   12.7730    0.0000 </r>
      </set>
      <set comment="kpoint 33">
       <r>   -4.7540    1.0000 </r>
       <r>    0.8722    1.0000 </r>
       <r>    2.9997    1.0000 </r>
       <r>    4.2953    1.0000 </r>
       <r>    8.3010    0.0000 </r>
       <r>    9.1830    0.0000 </r>
       <r>   10.3077    0.0000 </r>
       <r>   10.7005    0.0000 </r>
       <r>   13.4294    0.0000 </r>
      </set>
      <set comment="kpoint 34">
       <r>   -4.0241    1.0000 </r>
       <r>   -0.4608    1.0000 </r>
       <r>    2.7658    1.0000 </r>
       <r>    3.9545    1.0000 </r>
       <r>    8.3393    0.0000 </r>
       <r>    8.8937    0.0000 </r>
       <r>   10.6275    0.0000 </r>
       <r>   11.6286    0.0000 </r>
       <r>   14.7289    0.0000 </r>
      </set>
      <set comment="kpoint 35">
       <r>   -3.5787    1.0000 </r>
       <r>   -1.1204    1.0000 </r>
       <r>    2.7046    1.0000 </r>
       <r>    3.8206    1.0000 </r>
       <r>    8.3519    0.0000 </r>
       <r>    8.7302    0.0000 </r>
       <r>   10.5906    0.0000 </r>
       <r>   13.3467    0.0000 </r>
       <r>   13.3901    0.0000 </r>
      </set>
      <set comment="kpoint 36">
       <r>   -4.5309    1.0000 </r>
       <r>    0.8660    1.0000 </r>
       <r>    2.8706    1.0000 </r>
       <r>    3.5754    1.0000 </r>
       <r>    7.4026    0.0000 </r>
       <r>    8.6824    0.0000 </r>
       <r>   10.7567    0.0000 </r>
       <r>   12.0802    0.0000 </r>
       <r>   14.4313    0.0000 </r>
      </set>
      <set comment="kpoint 37">
       <r>   -3.8256    1.0000 </r>
       <r>   -0.2142    1.0000 </r>
       <r>    2.2619    1.0000 </r>
       <r>    3.2562    1.0000 </r>
       <r>    7.7831    0.0000 </r>
       <r>    9.3687    0.0000 </r>
       <r>   10.3826    0.0000 </r>
       <r>   12.4716    0.0000 </r>
       <r>   15.5103    0.0000 </r>
      </set>
      <set comment="kpoint 38">
       <r>   -3.1928    1.0000 </r>
       <r>   -1.0542    1.0000 </r>
       <r>    1.8597    1.0000 </r>
       <r>    3.2019    1.0000 </r>
       <r>    7.9629    0.0000 </r>
       <r>    9.9555    0.0000 </r>
       <r>   11.0786    0.0000 </r>
       <r>   12.3997    0.0000 </r>
       <r>   13.4812    0.0000 </r>
      </set>
      <set comment="kpoint 39">
       <r>   -3.3891    1.0000 </r>
       <r>   -0.8017    1.0000 </r>
       <r>    1.7151    1.0000 </r>
       <r>    3.4357    1.0000 </r>
       <r>    8.2964    0.0000 </r>
       <r>    9.7010    0.0000 </r>
       <r>   11.5078    0.0000 </r>
       <r>   12.2849    0.0000 </r>
       <r>   13.1435    0.0000 </r>
      </set>
      <set comment="kpoint 40">
       <r>   -4.1073    1.0000 </r>
       <r>    0.1272    1.0000 </r>
       <r>    2.0131    1.0000 </r>
       <r>    3.8649    1.0000 </r>
       <r>    8.7754    0.0000 </r>
       <r>    9.2540    0.0000 </r>
       <r>   10.3008    0.0000 </r>
       <r>   11.8087    0.0000 </r>
       <r>   13.4895    0.0000 </r>
      </set>
      <set comment="kpoint 41">
       <r>   -3.4207    1.0000 </r>
       <r>   -0.6063    1.0000 </r>
       <r>    2.4680    1.0000 </r>
       <r>    2.7891    1.0000 </r>
       <r>    7.1191   -0.0000 </r>
       <r>    7.7123    0.0000 </r>
       <r>   12.2896    0.0000 </r>
       <r>   14.0029    0.0000 </r>
       <r>   15.9497    0.0000 </r>
      </set>
      <set comment="kpoint 42">
       <r>   -2.6993    1.0000 </r>
       <r>   -1.3670    1.0000 </r>
       <r>    1.7861    1.0000 </r>
       <r>    2.7000    1.0000 </r>
       <r>    7.4693    0.0000 </r>
       <r>    8.8939    0.0000 </r>
       <r>   11.8953    0.0000 </r>
       <r>   13.6511    0.0000 </r>
       <r>   14.4413    0.0000 </r>
      </set>
      <set comment="kpoint 43">
       <r>   -2.7085    1.0000 </r>
       <r>   -1.3375    1.0000 </r>
       <r>    1.3809    1.0000 </r>
       <r>    2.9635    1.0000 </r>
       <r>    7.7907    0.0000 </r>
       <r>   10.7114    0.0000 </r>
       <r>   11.4934    0.0000 </r>
       <r>   11.8318    0.0000 </r>
       <r>   13.9213    0.0000 </r>
      </set>
      <set comment="kpoint 44">
       <r>   -2.0799    1.0000 </r>
       <r>   -2.0799    1.0000 </r>
       <r>    2.4271    1.0000 </r>
       <r>    2.4271    1.0000 </r>
       <r>    7.2021    0.0000 </r>
       <r>    7.2021    0.0000 </r>
       <r>   14.0029    0.0000 </r>
       <r>   14.0029    0.0000 </r>
       <r>   16.0842    0.0000 </r>
      </set>
      <set comment="kpoint 45">
       <r>   -3.1092    1.0000 </r>
       <r>   -0.8983    1.0000 </r>
       <r>    1.7272    1.0000 </r>
       <r>    2.6943    1.0000 </r>
       <r>    8.9985    0.0000 </r>
       <r>    9.3956    0.0000 </r>
       <r>    9.9876    0.0000 </r>
       <r>   13.3193    0.0000 </r>
       <r>   13.9731    0.0000 </r>
      </set>
      <set comment="kpoint 46">
       <r>   -2.6107    1.0000 </r>
       <r>   -1.3976    1.0000 </r>
       <r>    1.5740    1.0000 </r>
       <r>    2.4494    1.0000 </r>
       <r>    9.2919    0.0000 </r>
       <r>    9.5683    0.0000 </r>
       <r>   10.9781    0.0000 </r>
       <r>   11.3843    0.0000 </r>
       <r>   14.4130    0.0000 </r>
      </set>
      <set comment="kpoint 47">
       <r>   -1.9916    1.0000 </r>
       <r>   -1.9916    1.0000 </r>
       <r>    1.9301    1.0000 </r>
       <r>    1.9301    1.0000 </r>
       <r>    9.0415    0.0000 </r>
       <r>    9.0415    0.0000 </r>
       <r>   11.4780    0.0000 </r>
       <r>   11.4780    0.0000 </r>
       <r>   16.0665    0.0000 </r>
      </set>
     </set>
     <set comment="spin 2">
      <set comment="kpoint 1">
       <r>   -6.1989    1.0000 </r>
       <r>    5.6159    1.0000 </r>
       <r>    5.6159    1.0000 </r>
       <r>    5.6159    1.0000 </r>
       <r>    8.1730    0.0000 </r>
       <r>    8.1730    0.0000 </r>
       <r>    8.1730    0.0000 </r>
       <r>    8.7491    0.0000 </r>
       <r>   13.3253    0.0000 </r>
      </set>
      <set comment="kpoint 2">
       <r>   -6.0703    1.0000 </r>
       <r>    4.4738    1.0000 </r>
       <r>    5.4221    1.0000 </r>
       <r>    5.4222    1.0000 </r>
       <r>    8.1387    0.0000 </r>
       <r>    8.4588    0.0000 </r>
       <r>    8.4588    0.0000 </r>
       <r>    9.7195    0.0000 </r>
       <r>   12.9756    0.0000 </r>
      </set>
      <set comment="kpoint 3">
       <r>   -5.6909    1.0000 </r>
       <r>    2.6340    1.0000 </r>
       <r>    5.0484    1.0000 </r>
       <r>    5.0484    1.0000 </r>
       <r>    7.7684    0.0000 </r>
       <r>    8.9606    0.0000 </r>
       <r>    8.9606    0.0000 </r>
       <r>   11.4942    0.0000 </r>
       <r>   12.6648    0.0000 </r>
      </set>
      <set comment="kpoint 4">
       <r>   -5.0875    1.0000 </r>
       <r>    0.8760    1.0000 </r>
       <r>    4.7184    1.0000 </r>
       <r>    4.7184    1.0000 </r>
       <r>    7.4046    0.0000 </r>
       <r>    9.1412    0.0000 </r>
       <r>    9.1412    0.0000 </r>
       <r>   13.1164    0.0000 </r>
       <r>   13.1905    0.0000 </r>
      </set>
      <set comment="kpoint 5">
       <r>   -4.3578    1.0000 </r>
       <r>   -0.5722    1.0000 </r>
       <r>    4.5085    1.0000 </r>
       <r>    4.5085    1.0000 </r>
       <r>    7.1647    0.0000 </r>
       <r>    9.0368    0.0000 </r>
       <r>    9.0368    0.0000 </r>
       <r>   13.4213    0.0000 </r>
       <r>   14.5527    0.0000 </r>
      </set>
      <set comment="kpoint 6">
       <r>   -3.9203    1.0000 </r>
       <r>   -1.2526    1.0000 </r>
       <r>    4.4376    1.0000 </r>
       <r>    4.4376    1.0000 </r>
       <r>    7.0824    0.0000 </r>
       <r>    8.9657    0.0000 </r>
       <r>    8.9657    0.0000 </r>
       <r>   13.3183    0.0000 </r>
       <r>   16.1112    0.0000 </r>
      </set>
      <set comment="kpoint 7">
       <r>   -6.0271    1.0000 </r>
       <r>    4.6602    1.0000 </r>
       <r>    5.0545    1.0000 </r>
       <r>    5.0545    1.0000 </r>
       <r>    7.8013    0.0000 </r>
       <r>    8.9453    0.0000 </r>
       <r>    8.9453    0.0000 </r>
       <r>    9.6039    0.0000 </r>
       <r>   12.3529    0.0000 </r>
      </set>
      <set comment="kpoint 8">
       <r>   -5.7301    1.0000 </r>
       <r>    3.1743    1.0000 </r>
       <r>    4.6280    1.0000 </r>
       <r>    4.7859    1.0000 </r>
       <r>    7.8554    0.0000 </r>
       <r>    8.9543    0.0000 </r>
       <r>    9.5890    0.0000 </r>
       <r>   10.5287    0.0000 </r>
       <r>   12.3086    0.0000 </r>
      </set>
      <set comment="kpoint 9">
       <r>   -5.1968    1.0000 </r>
       <r>    1.4437    1.0000 </r>
       <r>    4.3138    1.0000 </r>
       <r>    4.3581    1.0000 </r>
       <r>    7.9633    0.0000 </r>
       <r>    8.9577    0.0000 </r>
       <r>    9.8760    0.0000 </r>
       <r>   10.9180    0.0000 </r>
       <r>   13.7393    0.0000 </r>
      </set>
      <set comment="kpoint 10">
       <r>   -4.4884    1.0000 </r>
       <r>   -0.1004    1.0000 </r>
       <r>    3.9530    1.0000 </r>
       <r>    4.1673    1.0000 </r>
       <r>    7.8064    0.0000 </r>
       <r>    8.9459    0.0000 </r>
       <r>    9.7124    0.0000 </r>
       <r>   11.9628    0.0000 </r>
       <r>   14.5229    0.0000 </r>
      </set>
      <set comment="kpoint 11">
       <r>   -3.8655    1.0000 </r>
       <r>   -1.1133    1.0000 </r>
       <r>    3.6685    1.0000 </r>
       <r>    4.1980    1.0000 </r>
       <r>    7.7130    0.0000 </r>
       <r>    8.9266    0.0000 </r>
       <r>    9.4556    0.0000 </r>
       <r>   13.3560    0.0000 </r>
       <r>   14.4710    0.0000 </r>
      </set>
      <set comment="kpoint 12">
       <r>   -4.0275    1.0000 </r>
       <r>   -0.8711    1.0000 </r>
       <r>    3.5446    1.0000 </r>
       <r>    4.3928    1.0000 </r>
       <r>    7.7677    0.0000 </r>
       <r>    9.0609    0.0000 </r>
       <r>    9.3027    0.0000 </r>
       <r>   13.6076    0.0000 </r>
       <r>   14.1729    0.0000 </r>
      </set>
      <set comment="kpoint 13">
       <r>   -4.7381    1.0000 </r>
       <r>    0.3839    1.0000 </r>
       <r>    3.6068    1.0000 </r>
       <r>    4.7206    1.0000 </r>
       <r>    7.9670    0.0000 </r>
       <r>    9.2256    0.0000 </r>
       <r>    9.3043    0.0000 </r>
       <r>   12.5467    0.0000 </r>
       <r>   12.6690    0.0000 </r>
      </set>
      <set comment="kpoint 14">
       <r>   -5.4003    1.0000 </r>
       <r>    2.0033    1.0000 </r>
       <r>    3.8821    1.0000 </r>
       <r>    5.1191    1.0000 </r>
       <r>    8.2746    0.0000 </r>
       <r>    8.9727    0.0000 </r>
       <r>    9.2996    0.0000 </r>
       <r>   11.4863    0.0000 </r>
       <r>   11.9761    0.0000 </r>
      </set>
      <set comment="kpoint 15">
       <r>   -5.8576    1.0000 </r>
       <r>    3.5890    1.0000 </r>
       <r>    4.4850    1.0000 </r>
       <r>    5.4405    1.0000 </r>
       <r>    8.5268    0.0000 </r>
       <r>    8.5274    0.0000 </r>
       <r>    8.7056    0.0000 </r>
       <r>   10.6652    0.0000 </r>
       <r>   12.2327    0.0000 </r>
      </set>
      <set comment="kpoint 16">
       <r>   -5.5158    1.0000 </r>
       <r>    2.9811    1.0000 </r>
       <r>    4.1617    1.0000 </r>
       <r>    4.1617    1.0000 </r>
       <r>    7.0924    0.0000 </r>
       <r>    9.4691    0.0000 </r>
       <r>   10.4571    0.0000 </r>
       <r>   10.4571    0.0000 </r>
       <r>   12.5546    0.0000 </r>
      </set>
      <set comment="kpoint 17">
       <r>   -5.0587    1.0000 </r>
       <r>    1.7588    1.0000 </r>
       <r>    3.6592    1.0000 </r>
       <r>    3.8194    1.0000 </r>
       <r>    7.1882    0.0000 </r>
       <r>    9.0609    0.0000 </r>
       <r>   10.7072    0.0000 </r>
       <r>   11.0454    0.0000 </r>
       <r>   14.0203    0.0000 </r>
      </set>
      <set comment="kpoint 18">
       <r>   -4.3969    1.0000 </r>
       <r>    0.3524    1.0000 </r>
       <r>    3.0392    1.0000 </r>
       <r>    3.6616    1.0000 </r>
       <r>    7.4030    0.0000 </r>
       <r>    9.6857    0.0000 </r>
       <r>   10.4764    0.0000 </r>
       <r>   11.0121    0.0000 </r>
       <r>   15.6757    0.0000 </r>
      </set>
      <set comment="kpoint 19">
       <r>   -3.6839    1.0000 </r>
       <r>   -0.8039    1.0000 </r>
       <r>    2.5379    1.0000 </r>
       <r>    3.7035    1.0000 </r>
       <r>    7.4667    0.0000 </r>
       <r>   10.2575    0.0000 </r>
       <r>   10.6948    0.0000 </r>
       <r>   11.2115    0.0000 </r>
       <r>   15.3053    0.0000 </r>
      </set>
      <set comment="kpoint 20">
       <r>   -3.5361    1.0000 </r>
       <r>   -1.0058    1.0000 </r>
       <r>    2.2467    1.0000 </r>
       <r>    3.9362    1.0000 </r>
       <r>    7.6744    0.0000 </r>
       <r>   10.1627    0.0000 </r>
       <r>   10.3966    0.0000 </r>
       <r>   13.1106    0.0000 </r>
       <r>   13.8861    0.0000 </r>
      </set>
      <set comment="kpoint 21">
       <r>   -4.1726    1.0000 </r>
       <r>   -0.0440    1.0000 </r>
       <r>    2.2321    1.0000 </r>
       <r>    4.3249    1.0000 </r>
       <r>    8.0565    0.0000 </r>
       <r>   10.1206    0.0000 </r>
       <r>   10.1776    0.0000 </r>
       <r>   12.2335    0.0000 </r>
       <r>   12.4286    0.0000 </r>
      </set>
      <set comment="kpoint 22">
       <r>   -4.8753    1.0000 </r>
       <r>    1.1693    1.0000 </r>
       <r>    2.6828    1.0000 </r>
       <r>    4.7850    1.0000 </r>
       <r>    8.4668    0.0000 </r>
       <r>    9.5817    0.0000 </r>
       <r>    9.8855    0.0000 </r>
       <r>   11.2728    0.0000 </r>
       <r>   11.7477    0.0000 </r>
      </set>
      <set comment="kpoint 23">
       <r>   -4.6775    1.0000 </r>
       <r>    1.2116    1.0000 </r>
       <r>    3.4338    1.0000 </r>
       <r>    3.4338    1.0000 </r>
       <r>    6.5055    0.0000 </r>
       <r>    8.0524    0.0000 </r>
       <r>   12.1873    0.0000 </r>
       <r>   12.1873    0.0000 </r>
       <r>   14.5233    0.0000 </r>
      </set>
      <set comment="kpoint 24">
       <r>   -4.0763    1.0000 </r>
       <r>    0.2231    1.0000 </r>
       <r>    2.8226    1.0000 </r>
       <r>    3.2323    1.0000 </r>
       <r>    6.6929   -0.0000 </r>
       <r>    7.8818    0.0000 </r>
       <r>   12.4712    0.0000 </r>
       <r>   12.6118    0.0000 </r>
       <r>   16.0254    0.0000 </r>
      </set>
      <set comment="kpoint 25">
       <r>   -3.3425    1.0000 </r>
       <r>   -0.7625    1.0000 </r>
       <r>    2.0129    1.0000 </r>
       <r>    3.2381    1.0000 </r>
       <r>    6.8742    0.0000 </r>
       <r>    8.9923    0.0000 </r>
       <r>   12.2855    0.0000 </r>
       <r>   12.3737    0.0000 </r>
       <r>   15.9685    0.0000 </r>
      </set>
      <set comment="kpoint 26">
       <r>   -2.9365    1.0000 </r>
       <r>   -1.2244    1.0000 </r>
       <r>    1.4722    1.0000 </r>
       <r>    3.4489    1.0000 </r>
       <r>    7.1022    0.0000 </r>
       <r>   10.7770    0.0000 </r>
       <r>   11.9784    0.0000 </r>
       <r>   12.1252    0.0000 </r>
       <r>   14.0211    0.0000 </r>
      </set>
      <set comment="kpoint 27">
       <r>   -3.4620    1.0000 </r>
       <r>   -0.6468    1.0000 </r>
       <r>    1.4478    1.0000 </r>
       <r>    3.8369    1.0000 </r>
       <r>    7.5346    0.0000 </r>
       <r>   11.3101    0.0000 </r>
       <r>   11.6210    0.0000 </r>
       <r>   12.3429    0.0000 </r>
       <r>   12.7049    0.0000 </r>
      </set>
      <set comment="kpoint 28">
       <r>   -3.5358    1.0000 </r>
       <r>   -0.5214    1.0000 </r>
       <r>    2.9769    1.0000 </r>
       <r>    2.9769    1.0000 </r>
       <r>    6.2339    0.0000 </r>
       <r>    6.9655    0.0000 </r>
       <r>   14.0165    0.0000 </r>
       <r>   14.0165    0.0000 </r>
       <r>   16.3656    0.0000 </r>
      </set>
      <set comment="kpoint 29">
       <r>   -2.8213    1.0000 </r>
       <r>   -1.3475    1.0000 </r>
       <r>    2.4080    1.0000 </r>
       <r>    2.9289    1.0000 </r>
       <r>    6.4697   -0.0000 </r>
       <r>    7.2150    0.0000 </r>
       <r>   14.2659    0.0000 </r>
       <r>   14.3427    0.0000 </r>
       <r>   16.3071    0.0000 </r>
      </set>
      <set comment="kpoint 30">
       <r>   -2.3606    1.0000 </r>
       <r>   -1.7573    1.0000 </r>
       <r>    1.6470    1.0000 </r>
       <r>    3.0928    1.0000 </r>
       <r>    6.6798    0.0000 </r>
       <r>    8.7649    0.0000 </r>
       <r>   13.6130    0.0000 </r>
       <r>   14.1879    0.0000 </r>
       <r>   14.1888    0.0000 </r>
      </set>
      <set comment="kpoint 31">
       <r>   -2.1304    1.0000 </r>
       <r>   -2.1304    1.0000 </r>
       <r>    2.8220    1.0000 </r>
       <r>    2.8220    1.0000 </r>
       <r>    6.3677    0.0000 </r>
       <r>    6.3677    0.0000 </r>
       <r>   15.5526    0.0000 </r>
       <r>   15.5526    0.0000 </r>
       <r>   16.5231    0.0000 </r>
      </set>
      <set comment="kpoint 32">
       <r>   -5.3537    1.0000 </r>
       <r>    2.2542    1.0000 </r>
       <r>    3.5832    1.0000 </r>
       <r>    4.6606    1.0000 </r>
       <r>    7.9611    0.0000 </r>
       <r>    9.2649    0.0000 </r>
       <r>   10.2144    0.0000 </r>
       <r>   10.2349    0.0000 </r>
       <r>   12.7729    0.0000 </r>
      </set>
      <set comment="kpoint 33">
       <r>   -4.7542    1.0000 </r>
       <r>    0.8719    1.0000 </r>
       <r>    2.9995    1.0000 </r>
       <r>    4.2950    1.0000 </r>
       <r>    8.3010    0.0000 </r>
       <r>    9.1829    0.0000 </r>
       <r>   10.3078    0.0000 </r>
       <r>   10.7004    0.0000 </r>
       <r>   13.4293    0.0000 </r>
      </set>
      <set comment="kpoint 34">
       <r>   -4.0243    1.0000 </r>
       <r>   -0.4610    1.0000 </r>
       <r>    2.7656    1.0000 </r>
       <r>    3.9542    1.0000 </r>
       <r>    8.3393    0.0000 </r>
       <r>    8.8938    0.0000 </r>
       <r>   10.6274    0.0000 </r>
       <r>   11.6287    0.0000 </r>
       <r>   14.7279    0.0000 </r>
      </set>
      <set comment="kpoint 35">
       <r>   -3.5790    1.0000 </r>
       <r>   -1.1206    1.0000 </r>
       <r>    2.7044    1.0000 </r>
       <r>    3.8203    1.0000 </r>
       <r>    8.3518    0.0000 </r>
       <r>    8.7303    0.0000 </r>
       <r>   10.5905    0.0000 </r>
       <r>   13.3468    0.0000 </r>
       <r>   13.3901    0.0000 </r>
      </set>
      <set comment="kpoint 36">
       <r>   -4.5311    1.0000 </r>
       <r>    0.8657    1.0000 </r>
       <r>    2.8704    1.0000 </r>
       <r>    3.5752    1.0000 </r>
       <r>    7.4027    0.0000 </r>
       <r>    8.6826    0.0000 </r>
       <r>   10.7565    0.0000 </r>
       <r>   12.0800    0.0000 </r>
       <r>   14.4312    0.0000 </r>
      </set>
      <set comment="kpoint 37">
       <r>   -3.8259    1.0000 </r>
       <r>   -0.2145    1.0000 </r>
       <r>    2.2618    1.0000 </r>
       <r>    3.2560    1.0000 </r>
       <r>    7.7832    0.0000 </r>
       <r>    9.3689    0.0000 </r>
       <r>   10.3825    0.0000 </r>
       <r>   12.4715    0.0000 </r>
       <r>   15.5231    0.0000 </r>
      </set>
      <set comment="kpoint 38">
       <r>   -3.1931    1.0000 </r>
       <r>   -1.0544    1.0000 </r>
       <r>    1.8596    1.0000 </r>
       <r>    3.2017    1.0000 </r>
       <r>    7.9630    0.0000 </r>
       <r>    9.9555    0.0000 </r>
       <r>   11.0786    0.0000 </r>
       <r>   12.3995    0.0000 </r>
       <r>   13.4812    0.0000 </r>
      </set>
      <set comment="kpoint 39">
       <r>   -3.3894    1.0000 </r>
       <r>   -0.8020    1.0000 </r>
       <r>    1.7150    1.0000 </r>
       <r>    3.4355    1.0000 </r>
       <r>    8.2965    0.0000 </r>
       <r>    9.7010    0.0000 </r>
       <r>   11.5078    0.0000 </r>
       <r>   12.2848    0.0000 </r>
       <r>   13.1434    0.0000 </r>
      </set>
      <set comment="kpoint 40">
       <r>   -4.1076    1.0000 </r>
       <r>    0.1269    1.0000 </r>
       <r>    2.0130    1.0000 </r>
       <r>    3.8646    1.0000 </r>
       <r>    8.7754    0.0000 </r>
       <r>    9.2540    0.0000 </r>
       <r>   10.3009    0.0000 </r>
       <r>   11.8085    0.0000 </r>
       <r>   13.4895    0.0000 </r>
      </set>
      <set comment="kpoint 41">
       <r>   -3.4209    1.0000 </r>
       <r>   -0.6066    1.0000 </r>
       <r>    2.4678    1.0000 </r>
       <r>    2.7889    1.0000 </r>
       <r>    7.1193   -0.0000 </r>
       <r>    7.7125    0.0000 </r>
       <r>   12.2894    0.0000 </r>
       <r>   14.0027    0.0000 </r>
       <r>   15.9494    0.0000 </r>
      </set>
      <set comment="kpoint 42">
       <r>   -2.6996    1.0000 </r>
       <r>   -1.3673    1.0000 </r>
       <r>    1.7860    1.0000 </r>
       <r>    2.6998    1.0000 </r>
       <r>    7.4695    0.0000 </r>
       <r>    8.8940    0.0000 </r>
       <r>   11.8952    0.0000 </r>
       <r>   13.6510    0.0000 </r>
       <r>   14.4411    0.0000 </r>
      </set>
      <set comment="kpoint 43">
       <r>   -2.7089    1.0000 </r>
       <r>   -1.3378    1.0000 </r>
       <r>    1.3809    1.0000 </r>
       <r>    2.9633    1.0000 </r>
       <r>    7.7908    0.0000 </r>
       <r>   10.7115    0.0000 </r>
       <r>   11.4933    0.0000 </r>
       <r>   11.8318    0.0000 </r>
       <r>   13.9211    0.0000 </r>
      </set>
      <set comment="kpoint 44">
       <r>   -2.0802    1.0000 </r>
       <r>   -2.0802    1.0000 </r>
       <r>    2.4269    1.0000 </r>
       <r>    2.4269    1.0000 </r>
       <r>    7.2023    0.0000 </r>
       <r>    7.2023    0.0000 </r>
       <r>   14.0028    0.0000 </r>
       <r>   14.0028    0.0000 </r>
       <r>   16.0841    0.0000 </r>
      </set>
      <set comment="kpoint 45">
       <r>   -3.1095    1.0000 </r>
       <r>   -0.8986    1.0000 </r>
       <r>    1.7272    1.0000 </r>
       <r>    2.6942    1.0000 </r>
       <r>    8.9986    0.0000 </r>
       <r>    9.3958    0.0000 </r>
       <r>    9.9875    0.0000 </r>
       <r>   13.3192    0.0000 </r>
       <r>   13.9729    0.0000 </r>
      </set>
      <set comment="kpoint 46">
       <r>   -2.6110    1.0000 </r>
       <r>   -1.3979    1.0000 </r>
       <r>    1.5740    1.0000 </r>
       <r>    2.4493    1.0000 </r>
       <r>    9.2920    0.0000 </r>
       <r>    9.5683    0.0000 </r>
       <r>   10.9781    0.0000 </r>
       <r>   11.3842    0.0000 </r>
       <r>   14.4128    0.0000 </r>
      </set>
      <set comment="kpoint 47">
       <r>   -1.9919    1.0000 </r>
       <r>   -1.9919    1.0000 </r>
       <r>    1.9300    1.0000 </r>
       <r>    1.9300    1.0000 </r>
       <r>    9.0416    0.0000 </r>
       <r>    9.0416    0.0000 </r>
       <r>   11.4779    0.0000 </r>
       <r>   11.4779    0.0000 </r>
       <r>   16.0663    0.0000 </r>
      </set>
     </set>
    </set>
   </array>
  </eigenvalues>
  <separator name="orbital magnetization" >
   <v name="MAGDIPOLOUT">      0.00000000      0.00000000      0.00000000</v>
  </separator>
  <dos>
   <i name="efermi">      6.23391695 </i>
   <total>
    <array>
     <dimension dim="1">gridpoints</dimension>
     <dimension dim="2">spin</dimension>
     <field>energy</field>
     <field>total</field>
     <field>integrated</field>
     <set>
      <set comment="spin 1">
       <r>    -8.1989     0.0000     0.0000 </r>
       <r>    -8.1098     0.0000     0.0000 </r>
       <r>    -8.0207     0.0000     0.0000 </r>
       <r>    -7.9316     0.0000     0.0000 </r>
       <r>    -7.8426     0.0000     0.0000 </r>
       <r>    -7.7535     0.0000     0.0000 </r>
       <r>    -7.6644     0.0000     0.0000 </r>
       <r>    -7.5754     0.0000     0.0000 </r>
       <r>    -7.4863     0.0000     0.0000 </r>
       <r>    -7.3972     0.0000     0.0000 </r>
       <r>    -7.3081     0.0000     0.0000 </r>
       <r>    -7.2191     0.0000     0.0000 </r>
       <r>    -7.1300     0.0000     0.0000 </r>
       <r>    -7.0409     0.0000     0.0000 </r>
       <r>    -6.9518     0.0000     0.0000 </r>
       <r>    -6.8628     0.0000     0.0000 </r>
       <r>    -6.7737     0.0000     0.0000 </r>
       <r>    -6.6846     0.0000     0.0000 </r>
       <r>    -6.5955     0.0000     0.0000 </r>
       <r>    -6.5065     0.0000     0.0000 </r>
       <r>    -6.4174     0.0000     0.0000 </r>
       <r>    -6.3283     0.0000     0.0000 </r>
       <r>    -6.2392     0.0000     0.0000 </r>
       <r>    -6.1502     0.0099     0.0002 </r>
       <r>    -6.0611     0.0650     0.0036 </r>
       <r>    -5.9720     0.0728     0.0094 </r>
       <r>    -5.8829     0.0940     0.0168 </r>
       <r>    -5.7939     0.1130     0.0261 </r>
       <r>    -5.7048     0.1196     0.0365 </r>
       <r>    -5.6157     0.1323     0.0477 </r>
       <r>    -5.5267     0.1457     0.0600 </r>
       <r>    -5.4376     0.1596     0.0736 </r>
       <r>    -5.3485     0.1690     0.0883 </r>
       <r>    -5.2594     0.1784     0.1038 </r>
       <r>    -5.1704     0.1876     0.1201 </r>
       <r>    -5.0813     0.1979     0.1373 </r>
       <r>    -4.9922     0.2093     0.1554 </r>
       <r>    -4.9031     0.2212     0.1746 </r>
       <r>    -4.8141     0.2325     0.1948 </r>
       <r>    -4.7250     0.2416     0.2159 </r>
       <r>    -4.6359     0.2530     0.2379 </r>
       <r>    -4.5468     0.2652     0.2610 </r>
       <r>    -4.4578     0.2782     0.2852 </r>
       <r>    -4.3687     0.2935     0.3106 </r>
       <r>    -4.2796     0.3109     0.3375 </r>
       <r>    -4.1905     0.3302     0.3661 </r>
       <r>    -4.1015     0.3527     0.3964 </r>
       <r>    -4.0124     0.3849     0.4291 </r>
       <r>    -3.9233     0.5025     0.4678 </r>
       <r>    -3.8342     0.4390     0.5108 </r>
       <r>    -3.7452     0.4347     0.5497 </r>
       <r>    -3.6561     0.4298     0.5882 </r>
       <r>    -3.5670     0.3917     0.6251 </r>
       <r>    -3.4779     0.3918     0.6597 </r>
       <r>    -3.3889     0.3895     0.6947 </r>
       <r>    -3.2998     0.3706     0.7286 </r>
       <r>    -3.2107     0.3432     0.7605 </r>
       <r>    -3.1217     0.3251     0.7901 </r>
       <r>    -3.0326     0.3114     0.8184 </r>
       <r>    -2.9435     0.3000     0.8456 </r>
       <r>    -2.8544     0.2867     0.8718 </r>
       <r>    -2.7654     0.2744     0.8968 </r>
       <r>    -2.6763     0.2930     0.9216 </r>
       <r>    -2.5872     0.2322     0.9449 </r>
       <r>    -2.4981     0.1827     0.9633 </r>
       <r>    -2.4091     0.1371     0.9775 </r>
       <r>    -2.3200     0.0954     0.9878 </r>
       <r>    -2.2309     0.0588     0.9947 </r>
       <r>    -2.1418     0.0273     0.9985 </r>
       <r>    -2.0528     0.0112     1.0000 </r>
       <r>    -1.9637     0.0233     1.0012 </r>
       <r>    -1.8746     0.0525     1.0046 </r>
       <r>    -1.7855     0.0863     1.0107 </r>
       <r>    -1.6965     0.1243     1.0201 </r>
       <r>    -1.6074     0.1653     1.0330 </r>
       <r>    -1.5183     0.2094     1.0496 </r>
       <r>    -1.4292     0.2565     1.0703 </r>
       <r>    -1.3402     0.3002     1.0957 </r>
       <r>    -1.2511     0.3399     1.1245 </r>
       <r>    -1.1620     0.3941     1.1565 </r>
       <r>    -1.0730     0.7771     1.2048 </r>
       <r>    -0.9839     0.8167     1.2840 </r>
       <r>    -0.8948     0.5761     1.3451 </r>
       <r>    -0.8057     0.4508     1.3902 </r>
       <r>    -0.7167     0.3946     1.4276 </r>
       <r>    -0.6276     0.3597     1.4611 </r>
       <r>    -0.5385     0.3335     1.4919 </r>
       <r>    -0.4494     0.3116     1.5206 </r>
       <r>    -0.3604     0.2917     1.5475 </r>
       <r>    -0.2713     0.2728     1.5726 </r>
       <r>    -0.1822     0.2547     1.5961 </r>
       <r>    -0.0931     0.2381     1.6180 </r>
       <r>    -0.0041     0.2195     1.6385 </r>
       <r>     0.0850     0.2032     1.6573 </r>
       <r>     0.1741     0.1949     1.6750 </r>
       <r>     0.2632     0.1878     1.6920 </r>
       <r>     0.3522     0.1807     1.7084 </r>
       <r>     0.4413     0.1737     1.7242 </r>
       <r>     0.5304     0.1666     1.7394 </r>
       <r>     0.6195     0.1596     1.7539 </r>
       <r>     0.7085     0.1525     1.7678 </r>
       <r>     0.7976     0.1453     1.7810 </r>
       <r>     0.8867     0.1305     1.7935 </r>
       <r>     0.9757     0.1223     1.8048 </r>
       <r>     1.0648     0.1159     1.8154 </r>
       <r>     1.1539     0.1114     1.8255 </r>
       <r>     1.2430     0.1081     1.8353 </r>
       <r>     1.3320     0.1049     1.8448 </r>
       <r>     1.4211     0.1840     1.8551 </r>
       <r>     1.5102     0.3700     1.8833 </r>
       <r>     1.5993     0.5332     1.9235 </r>
       <r>     1.6883     0.6786     1.9775 </r>
       <r>     1.7774     0.7481     2.0425 </r>
       <r>     1.8665     0.5585     2.1004 </r>
       <r>     1.9556     0.5161     2.1476 </r>
       <r>     2.0446     0.5093     2.1933 </r>
       <r>     2.1337     0.5082     2.2386 </r>
       <r>     2.2228     0.5173     2.2842 </r>
       <r>     2.3119     0.5272     2.3307 </r>
       <r>     2.4009     0.5409     2.3782 </r>
       <r>     2.4900     0.6239     2.4333 </r>
       <r>     2.5791     0.6079     2.4861 </r>
       <r>     2.6682     0.6556     2.5422 </r>
       <r>     2.7572     0.7202     2.6064 </r>
       <r>     2.8463     0.7585     2.6718 </r>
       <r>     2.9354     0.8594     2.7446 </r>
       <r>     3.0245     0.7615     2.8141 </r>
       <r>     3.1135     0.7462     2.8813 </r>
       <r>     3.2026     0.7299     2.9470 </r>
       <r>     3.2917     0.7324     3.0122 </r>
       <r>     3.3807     0.7236     3.0771 </r>
       <r>     3.4698     0.7095     3.1409 </r>
       <r>     3.5589     0.6941     3.2034 </r>
       <r>     3.6480     0.6863     3.2648 </r>
       <r>     3.7370     0.6733     3.3253 </r>
[...]
        <r>  0.0295  0.0495  0.0443  0.0012  0.0000  0.0000  0.0000  0.0000  0.0000 </r>
       </set>
       <set comment="band 7">
        <r>  0.0313  0.0587  0.0008  0.0385  0.0000  0.0000  0.0000  0.0000  0.0000 </r>
        <r>  0.0313  0.0587  0.0008  0.0385  0.0000  0.0000  0.0000  0.0000  0.0000 </r>
       </set>
       <set comment="band 8">
        <r>  0.0217  0.0631  0.0669  0.0024  0.0000  0.0000  0.0000  0.0000  0.0000 </r>
        <r>  0.0217  0.0631  0.0669  0.0024  0.0000  0.0000  0.0000  0.0000  0.0000 </r>
       </set>
       <set comment="band 9">
        <r>  0.0160  0.0085  0.0244  0.0707  0.0000  0.0000  0.0000  0.0000  0.0000 </r>
        <r>  0.0160  0.0085  0.0244  0.0707  0.0000  0.0000  0.0000  0.0000  0.0000 </r>
       </set>
      </set>
      <set comment="kpoint 39">
       <set comment="band 1">
        <r>  0.2121  0.0117  0.0013  0.0110  0.0000  0.0000  0.0000  0.0000  0.0000 </r>
        <r>  0.2121  0.0117  0.0013  0.0110  0.0000  0.0000  0.0000  0.0000  0.0000 </r>
       </set>
       <set comment="band 2">
        <r>  0.1605  0.0120  0.0011  0.0572  0.0000  0.0000  0.0000  0.0000  0.0000 </r>
        <r>  0.1605  0.0120  0.0011  0.0572  0.0000  0.0000  0.0000  0.0000  0.0000 </r>
       </set>
       <set comment="band 3">
        <r>  0.0189  0.0991  0.0031  0.0467  0.0000  0.0000  0.0000  0.0000  0.0000 </r>
        <r>  0.0189  0.0991  0.0031  0.0467  0.0000  0.0000  0.0000  0.0000  0.0000 </r>
       </set>
       <set comment="band 4">
        <r>  0.0029  0.0102  0.1703  0.0070  0.0000  0.0000  0.0000  0.0000  0.0000 </r>
        <r>  0.0029  0.0102  0.1703  0.0070  0.0000  0.0000  0.0000  0.0000  0.0000 </r>
       </set>
       <set comment="band 5">
        <r>  0.0461  0.0196  0.0297  0.0243  0.0000  0.0000  0.0000  0.0000  0.0000 </r>
        <r>  0.0461  0.0196  0.0297  0.0243  0.0000  0.0000  0.0000  0.0000  0.0000 </r>
       </set>
       <set comment="band 6">
        <r>  0.0301  0.0394  0.0552  0.0035  0.0000  0.0000  0.0000  0.0000  0.0000 </r>
        <r>  0.0301  0.0394  0.0552  0.0035  0.0000  0.0000  0.0000  0.0000  0.0000 </r>
       </set>
       <set comment="band 7">
        <r>  0.0325  0.0185  0.0321  0.0503  0.0000  0.0000  0.0000  0.0000  0.0000 </r>
        <r>  0.0325  0.0185  0.0321  0.0503  0.0000  0.0000  0.0000  0.0000  0.0000 </r>
       </set>
       <set comment="band 8">
        <r>  0.0114  0.0407  0.0492  0.0163  0.0000  0.0000  0.0000  0.0000  0.0000 </r>
        <r>  0.0114  0.0407  0.0492  0.0163  0.0000  0.0000  0.0000  0.0000  0.0000 </r>
       </set>
       <set comment="band 9">
        <r>  0.0208  0.0769  0.0002  0.0496  0.0000  0.0000  0.0000  0.0000  0.0000 </r>
        <r>  0.0208  0.0769  0.0002  0.0496  0.0000  0.0000  0.0000  0.0000  0.0000 </r>
       </set>
      </set>
      <set comment="kpoint 40">
       <set comment="band 1">
        <r>  0.2075  0.0117  0.0012  0.0069  0.0000  0.0000  0.0000  0.0000  0.0000 </r>
        <r>  0.2075  0.0117  0.0012  0.0069  0.0000  0.0000  0.0000  0.0000  0.0000 </r>
       </set>
       <set comment="band 2">
        <r>  0.1612  0.0400  0.0017  0.0369  0.0000  0.0000  0.0000  0.0000  0.0000 </r>
        <r>  0.1612  0.0400  0.0017  0.0369  0.0000  0.0000  0.0000  0.0000  0.0000 </r>
       </set>
       <set comment="band 3">
        <r>  0.0122  0.0753  0.0011  0.0783  0.0000  0.0000  0.0000  0.0000  0.0000 </r>
        <r>  0.0122  0.0753  0.0011  0.0783  0.0000  0.0000  0.0000  0.0000  0.0000 </r>
       </set>
       <set comment="band 4">
        <r>  0.0045  0.0057  0.1761  0.0109  0.0000  0.0000  0.0000  0.0000  0.0000 </r>
        <r>  0.0045  0.0057  0.1761  0.0109  0.0000  0.0000  0.0000  0.0000  0.0000 </r>
       </set>
       <set comment="band 5">
        <r>  0.0521  0.0194  0.0303  0.0350  0.0000  0.0000  0.0000  0.0000  0.0000 </r>
        <r>  0.0521  0.0194  0.0303  0.0350  0.0000  0.0000  0.0000  0.0000  0.0000 </r>
       </set>
       <set comment="band 6">
        <r>  0.0218  0.0113  0.0807  0.0223  0.0000  0.0000  0.0000  0.0000  0.0000 </r>
        <r>  0.0218  0.0113  0.0807  0.0223  0.0000  0.0000  0.0000  0.0000  0.0000 </r>
       </set>
       <set comment="band 7">
        <r>  0.0441  0.0390  0.0006  0.0274  0.0000  0.0000  0.0000  0.0000  0.0000 </r>
        <r>  0.0441  0.0390  0.0006  0.0274  0.0000  0.0000  0.0000  0.0000  0.0000 </r>
       </set>
       <set comment="band 8">
        <r>  0.0100  0.0264  0.0624  0.0502  0.0000  0.0000  0.0000  0.0000  0.0000 </r>
        <r>  0.0100  0.0264  0.0624  0.0502  0.0000  0.0000  0.0000  0.0000  0.0000 </r>
       </set>
       <set comment="band 9">
        <r>  0.0337  0.0328  0.0080  0.0196  0.0000  0.0000  0.0000  0.0000  0.0000 </r>
        <r>  0.0337  0.0328  0.0080  0.0196  0.0000  0.0000  0.0000  0.0000  0.0000 </r>
       </set>
      </set>
      <set comment="kpoint 41">
       <set comment="band 1">
        <r>  0.2016  0.0069  0.0009  0.0210  0.0000  0.0000  0.0000  0.0000  0.0000 </r>
        <r>  0.2016  0.0069  0.0009  0.0210  0.0000  0.0000  0.0000  0.0000  0.0000 </r>
       </set>
       <set comment="band 2">
        <r>  0.1865  0.0158  0.0041  0.0410  0.0000  0.0000  0.0000  0.0000  0.0000 </r>
        <r>  0.1865  0.0158  0.0041  0.0410  0.0000  0.0000  0.0000  0.0000  0.0000 </r>
       </set>
       <set comment="band 3">
        <r>  0.0063  0.0385  0.0804  0.0532  0.0000  0.0000  0.0000  0.0000  0.0000 </r>
        <r>  0.0063  0.0385  0.0804  0.0532  0.0000  0.0000  0.0000  0.0000  0.0000 </r>
       </set>
       <set comment="band 4">
        <r>  0.0000  0.0876  0.0825  0.0120  0.0000  0.0000  0.0000  0.0000  0.0000 </r>
        <r>  0.0000  0.0876  0.0825  0.0120  0.0000  0.0000  0.0000  0.0000  0.0000 </r>
       </set>
       <set comment="band 5">
        <r>  0.0414  0.0420  0.0172  0.0134  0.0000  0.0000  0.0000  0.0000  0.0000 </r>
        <r>  0.0414  0.0420  0.0172  0.0134  0.0000  0.0000  0.0000  0.0000  0.0000 </r>
       </set>
       <set comment="band 6">
        <r>  0.0416  0.0032  0.0122  0.0338  0.0000  0.0000  0.0000  0.0000  0.0000 </r>
        <r>  0.0416  0.0032  0.0122  0.0338  0.0000  0.0000  0.0000  0.0000  0.0000 </r>
       </set>
       <set comment="band 7">
        <r>  0.0257  0.0665  0.0531  0.0069  0.0000  0.0000  0.0000  0.0000  0.0000 </r>
        <r>  0.0257  0.0665  0.0531  0.0069  0.0000  0.0000  0.0000  0.0000  0.0000 </r>
       </set>
       <set comment="band 8">
        <r>  0.0016  0.0657  0.0823  0.0201  0.0000  0.0000  0.0000  0.0000  0.0000 </r>
        <r>  0.0016  0.0657  0.0823  0.0201  0.0000  0.0000  0.0000  0.0000  0.0000 </r>
       </set>
       <set comment="band 9">
        <r>  0.0074  0.0050  0.0246  0.0681  0.0000  0.0000  0.0000  0.0000  0.0000 </r>
        <r>  0.0068  0.0050  0.0248  0.0702  0.0000  0.0000  0.0000  0.0000  0.0000 </r>
       </set>
      </set>
      <set comment="kpoint 42">
       <set comment="band 1">
        <r>  0.2050  0.0099  0.0012  0.0225  0.0000  0.0000  0.0000  0.0000  0.0000 </r>
        <r>  0.2050  0.0099  0.0012  0.0225  0.0000  0.0000  0.0000  0.0000  0.0000 </r>
       </set>
       <set comment="band 2">
        <r>  0.1912  0.0137  0.0019  0.0366  0.0000  0.0000  0.0000  0.0000  0.0000 </r>
        <r>  0.1912  0.0137  0.0019  0.0366  0.0000  0.0000  0.0000  0.0000  0.0000 </r>
       </set>
       <set comment="band 3">
        <r>  0.0032  0.0969  0.0038  0.0579  0.0000  0.0000  0.0000  0.0000  0.0000 </r>
        <r>  0.0032  0.0969  0.0038  0.0579  0.0000  0.0000  0.0000  0.0000  0.0000 </r>
       </set>
       <set comment="band 4">
        <r>  0.0020  0.0124  0.1619  0.0043  0.0000  0.0000  0.0000  0.0000  0.0000 </r>
        <r>  0.0020  0.0124  0.1619  0.0043  0.0000  0.0000  0.0000  0.0000  0.0000 </r>
       </set>
       <set comment="band 5">
        <r>  0.0423  0.0179  0.0295  0.0157  0.0000  0.0000  0.0000  0.0000  0.0000 </r>
        <r>  0.0423  0.0179  0.0295  0.0157  0.0000  0.0000  0.0000  0.0000  0.0000 </r>
       </set>
       <set comment="band 6">
        <r>  0.0297  0.0443  0.0008  0.0348  0.0000  0.0000  0.0000  0.0000  0.0000 </r>
        <r>  0.0297  0.0443  0.0008  0.0348  0.0000  0.0000  0.0000  0.0000  0.0000 </r>
       </set>
       <set comment="band 7">
        <r>  0.0299  0.0586  0.0515  0.0056  0.0000  0.0000  0.0000  0.0000  0.0000 </r>
        <r>  0.0299  0.0586  0.0515  0.0056  0.0000  0.0000  0.0000  0.0000  0.0000 </r>
       </set>
       <set comment="band 8">
        <r>  0.0205  0.0242  0.0544  0.0614  0.0000  0.0000  0.0000  0.0000  0.0000 </r>
        <r>  0.0205  0.0242  0.0544  0.0614  0.0000  0.0000  0.0000  0.0000  0.0000 </r>
       </set>
       <set comment="band 9">
        <r>  0.0091  0.0536  0.0437  0.0084  0.0000  0.0000  0.0000  0.0000  0.0000 </r>
        <r>  0.0091  0.0536  0.0437  0.0084  0.0000  0.0000  0.0000  0.0000  0.0000 </r>
       </set>
      </set>
      <set comment="kpoint 43">
       <set comment="band 1">
        <r>  0.2125  0.0140  0.0016  0.0146  0.0000  0.0000  0.0000  0.0000  0.0000 </r>
        <r>  0.2125  0.0140  0.0016  0.0146  0.0000  0.0000  0.0000  0.0000  0.0000 </r>
       </set>
       <set comment="band 2">
        <r>  0.1846  0.0233  0.0013  0.0307  0.0000  0.0000  0.0000  0.0000  0.0000 </r>
        <r>  0.1846  0.0233  0.0013  0.0307  0.0000  0.0000  0.0000  0.0000  0.0000 </r>
       </set>
       <set comment="band 3">
        <r>  0.0014  0.0839  0.0003  0.0685  0.0000  0.0000  0.0000  0.0000  0.0000 </r>
        <r>  0.0014  0.0839  0.0003  0.0685  0.0000  0.0000  0.0000  0.0000  0.0000 </r>
       </set>
       <set comment="band 4">
        <r>  0.0029  0.0043  0.1681  0.0086  0.0000  0.0000  0.0000  0.0000  0.0000 </r>
        <r>  0.0029  0.0043  0.1681  0.0086  0.0000  0.0000  0.0000  0.0000  0.0000 </r>
       </set>
       <set comment="band 5">
        <r>  0.0430  0.0129  0.0299  0.0231  0.0000  0.0000  0.0000  0.0000  0.0000 </r>
        <r>  0.0430  0.0129  0.0299  0.0231  0.0000  0.0000  0.0000  0.0000  0.0000 </r>
       </set>
       <set comment="band 6">
        <r>  0.0055  0.0454  0.0156  0.0234  0.0000  0.0000  0.0000  0.0000  0.0000 </r>
        <r>  0.0055  0.0454  0.0156  0.0234  0.0000  0.0000  0.0000  0.0000  0.0000 </r>
       </set>
       <set comment="band 7">
        <r>  0.0368  0.0238  0.0709  0.0365  0.0000  0.0000  0.0000  0.0000  0.0000 </r>
        <r>  0.0368  0.0238  0.0709  0.0365  0.0000  0.0000  0.0000  0.0000  0.0000 </r>
       </set>
       <set comment="band 8">
        <r>  0.0368  0.0538  0.0023  0.0403  0.0000  0.0000  0.0000  0.0000  0.0000 </r>
        <r>  0.0368  0.0538  0.0023  0.0403  0.0000  0.0000  0.0000  0.0000  0.0000 </r>
       </set>
       <set comment="band 9">
        <r>  0.0116  0.0243  0.0650  0.0484  0.0000  0.0000  0.0000  0.0000  0.0000 </r>
        <r>  0.0116  0.0243  0.0650  0.0484  0.0000  0.0000  0.0000  0.0000  0.0000 </r>
       </set>
      </set>
      <set comment="kpoint 44">
       <set comment="band 1">
        <r>  0.1965  0.0151  0.0015  0.0264  0.0000  0.0000  0.0000  0.0000  0.0000 </r>
        <r>  0.1965  0.0151  0.0015  0.0264  0.0000  0.0000  0.0000  0.0000  0.0000 </r>
       </set>
       <set comment="band 2">
        <r>  0.1965  0.0136  0.0014  0.0280  0.0000  0.0000  0.0000  0.0000  0.0000 </r>
        <r>  0.1965  0.0136  0.0014  0.0280  0.0000  0.0000  0.0000  0.0000  0.0000 </r>
       </set>
       <set comment="band 3">
        <r>  0.0025  0.0408  0.0774  0.0574  0.0000  0.0000  0.0000  0.0000  0.0000 </r>
        <r>  0.0025  0.0408  0.0774  0.0574  0.0000  0.0000  0.0000  0.0000  0.0000 </r>
       </set>
       <set comment="band 4">
        <r>  0.0025  0.0763  0.0865  0.0129  0.0000  0.0000  0.0000  0.0000  0.0000 </r>
        <r>  0.0025  0.0763  0.0865  0.0129  0.0000  0.0000  0.0000  0.0000  0.0000 </r>
       </set>
       <set comment="band 5">
        <r>  0.0418  0.0167  0.0042  0.0386  0.0000  0.0000  0.0000  0.0000  0.0000 </r>
        <r>  0.0437  0.0164  0.0044  0.0378  0.0000  0.0000  0.0000  0.0000  0.0000 </r>
       </set>
       <set comment="band 6">
        <r>  0.0437  0.0227  0.0261  0.0098  0.0000  0.0000  0.0000  0.0000  0.0000 </r>
        <r>  0.0418  0.0230  0.0260  0.0106  0.0000  0.0000  0.0000  0.0000  0.0000 </r>
       </set>
       <set comment="band 7">
        <r>  0.0154  0.0739  0.0549  0.0087  0.0000  0.0000  0.0000  0.0000  0.0000 </r>
        <r>  0.0184  0.0742  0.0575  0.0067  0.0000  0.0000  0.0000  0.0000  0.0000 </r>
       </set>
       <set comment="band 8">
        <r>  0.0184  0.0181  0.0588  0.0616  0.0000  0.0000  0.0000  0.0000  0.0000 </r>
        <r>  0.0154  0.0178  0.0562  0.0636  0.0000  0.0000  0.0000  0.0000  0.0000 </r>
       </set>
       <set comment="band 9">
        <r>  0.0001  0.0694  0.0537  0.0420  0.0000  0.0000  0.0000  0.0000  0.0000 </r>
        <r>  0.0017  0.0351  0.0178  0.0094  0.0000  0.0000  0.0000  0.0000  0.0000 </r>
       </set>
      </set>
      <set comment="kpoint 45">
       <set comment="band 1">
        <r>  0.2071  0.0053  0.0037  0.0199  0.0000  0.0000  0.0000  0.0000  0.0000 </r>
        <r>  0.2071  0.0053  0.0037  0.0199  0.0000  0.0000  0.0000  0.0000  0.0000 </r>
       </set>
       <set comment="band 2">
        <r>  0.1869  0.0131  0.0138  0.0317  0.0000  0.0000  0.0000  0.0000  0.0000 </r>
        <r>  0.1869  0.0131  0.0138  0.0317  0.0000  0.0000  0.0000  0.0000  0.0000 </r>
       </set>
       <set comment="band 3">
        <r>  0.0067  0.0257  0.0643  0.0654  0.0000  0.0000  0.0000  0.0000  0.0000 </r>
        <r>  0.0067  0.0257  0.0643  0.0654  0.0000  0.0000  0.0000  0.0000  0.0000 </r>
       </set>
       <set comment="band 4">
        <r>  0.0016  0.1006  0.0610  0.0106  0.0000  0.0000  0.0000  0.0000  0.0000 </r>
        <r>  0.0016  0.1006  0.0610  0.0106  0.0000  0.0000  0.0000  0.0000  0.0000 </r>
       </set>
       <set comment="band 5">
        <r>  0.0272  0.0553  0.0338  0.0077  0.0000  0.0000  0.0000  0.0000  0.0000 </r>
        <r>  0.0272  0.0553  0.0338  0.0077  0.0000  0.0000  0.0000  0.0000  0.0000 </r>
       </set>
       <set comment="band 6">
        <r>  0.0091  0.0120  0.0338  0.0269  0.0000  0.0000  0.0000  0.0000  0.0000 </r>
        <r>  0.0091  0.0120  0.0338  0.0269  0.0000  0.0000  0.0000  0.0000  0.0000 </r>
       </set>
       <set comment="band 7">
        <r>  0.0664  0.0466  0.0321  0.0194  0.0000  0.0000  0.0000  0.0000  0.0000 </r>
        <r>  0.0664  0.0466  0.0321  0.0194  0.0000  0.0000  0.0000  0.0000  0.0000 </r>
       </set>
       <set comment="band 8">
        <r>  0.0195  0.0095  0.0364  0.0720  0.0000  0.0000  0.0000  0.0000  0.0000 </r>
        <r>  0.0195  0.0095  0.0364  0.0720  0.0000  0.0000  0.0000  0.0000  0.0000 </r>
       </set>
       <set comment="band 9">
        <r>  0.0033  0.0675  0.0592  0.0145  0.0000  0.0000  0.0000  0.0000  0.0000 </r>
        <r>  0.0033  0.0675  0.0592  0.0145  0.0000  0.0000  0.0000  0.0000  0.0000 </r>
       </set>
      </set>
      <set comment="kpoint 46">
       <set comment="band 1">
        <r>  0.2111  0.0114  0.0055  0.0148  0.0000  0.0000  0.0000  0.0000  0.0000 </r>
        <r>  0.2111  0.0114  0.0055  0.0148  0.0000  0.0000  0.0000  0.0000  0.0000 </r>
       </set>
       <set comment="band 2">
        <r>  0.1887  0.0121  0.0070  0.0340  0.0000  0.0000  0.0000  0.0000  0.0000 </r>
        <r>  0.1887  0.0121  0.0070  0.0340  0.0000  0.0000  0.0000  0.0000  0.0000 </r>
       </set>
       <set comment="band 3">
        <r>  0.0051  0.0627  0.0230  0.0680  0.0000  0.0000  0.0000  0.0000  0.0000 </r>
        <r>  0.0051  0.0627  0.0230  0.0680  0.0000  0.0000  0.0000  0.0000  0.0000 </r>
       </set>
       <set comment="band 4">
        <r>  0.0009  0.0497  0.1086  0.0104  0.0000  0.0000  0.0000  0.0000  0.0000 </r>
        <r>  0.0009  0.0497  0.1086  0.0104  0.0000  0.0000  0.0000  0.0000  0.0000 </r>
       </set>
       <set comment="band 5">
        <r>  0.0069  0.0303  0.0523  0.0029  0.0000  0.0000  0.0000  0.0000  0.0000 </r>
        <r>  0.0069  0.0303  0.0523  0.0029  0.0000  0.0000  0.0000  0.0000  0.0000 </r>
       </set>
       <set comment="band 6">
        <r>  0.0488  0.0305  0.0519  0.0096  0.0000  0.0000  0.0000  0.0000  0.0000 </r>
        <r>  0.0488  0.0305  0.0519  0.0096  0.0000  0.0000  0.0000  0.0000  0.0000 </r>
       </set>
       <set comment="band 7">
        <r>  0.0239  0.0260  0.0117  0.0511  0.0000  0.0000  0.0000  0.0000  0.0000 </r>
        <r>  0.0239  0.0260  0.0117  0.0511  0.0000  0.0000  0.0000  0.0000  0.0000 </r>
       </set>
       <set comment="band 8">
        <r>  0.0433  0.0426  0.0160  0.0564  0.0000  0.0000  0.0000  0.0000  0.0000 </r>
        <r>  0.0433  0.0426  0.0160  0.0564  0.0000  0.0000  0.0000  0.0000  0.0000 </r>
       </set>
       <set comment="band 9">
        <r>  0.0089  0.0651  0.0606  0.0080  0.0000  0.0000  0.0000  0.0000  0.0000 </r>
        <r>  0.0089  0.0651  0.0606  0.0080  0.0000  0.0000  0.0000  0.0000  0.0000 </r>
       </set>
      </set>
      <set comment="kpoint 47">
       <set comment="band 1">
        <r>  0.2029  0.0142  0.0065  0.0206  0.0000  0.0000  0.0000  0.0000  0.0000 </r>
        <r>  0.2029  0.0142  0.0065  0.0206  0.0000  0.0000  0.0000  0.0000  0.0000 </r>
       </set>
       <set comment="band 2">
        <r>  0.2029  0.0133  0.0064  0.0215  0.0000  0.0000  0.0000  0.0000  0.0000 </r>
        <r>  0.2029  0.0133  0.0064  0.0215  0.0000  0.0000  0.0000  0.0000  0.0000 </r>
       </set>
       <set comment="band 3">
        <r>  0.0007  0.0196  0.0672  0.0746  0.0000  0.0000  0.0000  0.0000  0.0000 </r>
        <r>  0.0007  0.0196  0.0672  0.0746  0.0000  0.0000  0.0000  0.0000  0.0000 </r>
       </set>
       <set comment="band 4">
        <r>  0.0007  0.0880  0.0610  0.0123  0.0000  0.0000  0.0000  0.0000  0.0000 </r>
        <r>  0.0007  0.0880  0.0610  0.0123  0.0000  0.0000  0.0000  0.0000  0.0000 </r>
       </set>
       <set comment="band 5">
        <r>  0.0293  0.0419  0.0053  0.0367  0.0000  0.0000  0.0000  0.0000  0.0000 </r>
        <r>  0.0249  0.0414  0.0030  0.0379  0.0000  0.0000  0.0000  0.0000  0.0000 </r>
       </set>
       <set comment="band 6">
        <r>  0.0249  0.0135  0.0594  0.0095  0.0000  0.0000  0.0000  0.0000  0.0000 </r>
        <r>  0.0293  0.0140  0.0617  0.0082  0.0000  0.0000  0.0000  0.0000  0.0000 </r>
       </set>
       <set comment="band 7">
        <r>  0.0348  0.0604  0.0362  0.0105  0.0000  0.0000  0.0000  0.0000  0.0000 </r>
        <r>  0.0338  0.0607  0.0361  0.0112  0.0000  0.0000  0.0000  0.0000  0.0000 </r>
       </set>
       <set comment="band 8">
        <r>  0.0338  0.0113  0.0356  0.0610  0.0000  0.0000  0.0000  0.0000  0.0000 </r>
        <r>  0.0348  0.0110  0.0357  0.0604  0.0000  0.0000  0.0000  0.0000  0.0000 </r>
       </set>
       <set comment="band 9">
        <r>  0.0001  0.0234  0.0284  0.0365  0.0000  0.0000  0.0000  0.0000  0.0000 </r>
        <r>  0.0000  0.0539  0.0455  0.0803  0.0000  0.0000  0.0000  0.0000  0.0000 </r>
       </set>
      </set>
     </set>
    </set>
   </array>
  </projected>
 </calculation>
 <structure name="finalpos" >
  <crystal>
   <varray name="basis" >
    <v>       3.34889800       0.00000000       1.93348700 </v>
    <v>       1.11629900       3.15737200       1.93348700 </v>
    <v>       0.00000000       0.00000000       3.86697500 </v>
   </varray>
   <i name="volume">     40.88829843 </i>
   <varray name="rec_basis" >
    <v>       0.29860569      -0.10557300       0.00000000 </v>
    <v>       0.00000000       0.31671909       0.00000000 </v>
    <v>      -0.14930281      -0.10557302       0.25860007 </v>
   </varray>
  </crystal>
  <varray name="positions" >
   <v>       0.25000000       0.25000000       0.25000000 </v>
   <v>       0.00000000       0.00000000       0.00000000 </v>
  </varray>
 </structure>
</modeling>
