
.Version 9.6.2 of ABINIT 
.(MPI version, prepared for a x86_64_linux_gnu9.4 computer) 

.Copyright (C) 1998-2021 ABINIT group . 
 ABINIT comes with ABSOLUTELY NO WARRANTY.
 It is free software, and you are welcome to redistribute it
 under certain conditions (GNU General Public License,
 see ~abinit/COPYING or http://www.gnu.org/copyleft/gpl.txt).

 ABINIT is a project of the Universite Catholique de Louvain,
 Corning Inc. and other collaborators, see ~abinit/doc/developers/contributors.txt .
 Please read https://docs.abinit.org/theory/acknowledgments for suggested
 acknowledgments of the ABINIT effort.
 For more information, see https://www.abinit.org .

.Starting date : Wed  6 Jul 2022.
- ( at 15h04 )
  
- input  file    -> run.abi
- output file    -> run.abo
- root for input  files -> indata/in
- root for output files -> outdata/out


 Symmetries : space group Fd -3 m (#227); Bravais cF (face-center cubic)
================================================================================
 Values of the parameters that define the memory need of the present run
     intxc =       0    ionmov =       0      iscf =      -2    lmnmax =       6
     lnmax =       6     mgfft =      15  mpssoang =       3    mqgrid =    3001
     natom =       2  nloc_mem =       1    nspden =       1   nspinor =       1
    nsppol =       1      nsym =      48    n1xccc =    2501    ntypat =       1
    occopt =       3   xclevel =       2
-    mband =           5        mffmem =           1         mkmem =         299
       mpw =         113          nfft =        3375          nkpt =         299
================================================================================
P This job should need less than                       5.290 Mbytes of memory.
  Rough estimation (10% accuracy) of disk space for files :
_ WF disk file :      2.580 Mbytes ; DEN or POT disk file :      0.028 Mbytes.
================================================================================

--------------------------------------------------------------------------------
------------- Echo of variables that govern the present computation ------------
--------------------------------------------------------------------------------
-
- outvars: echo of selected default values                                      
-   iomode0 =  0 , fftalg0 =312 , wfoptalg0 =  0
-
- outvars: echo of global parameters not present in the input file              
-  max_nthreads =    0
-
 -outvars: echo values of preprocessed input variables --------
            acell      1.0000000000E+00  1.0000000000E+00  1.0000000000E+00 Bohr
              amu      2.80855000E+01
      chksymbreak           0
             ecut      4.00000000E+00 Hartree
-          fftalg         312
           irdden           1
             iscf          -2
           istwfk        2    0    0    0    0    0    0    0    0    0
                         0    0    0    0    0    0    0    0    0    0
                         0    0    0    0    0    0    0    0    0    0
                         0    0    0    0    0    0    0    0    0    0
                         0    0    5    0    0    0    0    0    0    0
                       outvar_i_n : Printing only first  50 k-points.
              ixc          11
              kpt      0.00000000E+00  0.00000000E+00  0.00000000E+00
                       1.19047619E-02  0.00000000E+00  1.19047619E-02
                       2.38095238E-02  0.00000000E+00  2.38095238E-02
                       3.57142857E-02  0.00000000E+00  3.57142857E-02
                       4.76190476E-02  0.00000000E+00  4.76190476E-02
                       5.95238095E-02  0.00000000E+00  5.95238095E-02
                       7.14285714E-02  0.00000000E+00  7.14285714E-02
                       8.33333333E-02  0.00000000E+00  8.33333333E-02
                       9.52380952E-02  0.00000000E+00  9.52380952E-02
                       1.07142857E-01  0.00000000E+00  1.07142857E-01
                       1.19047619E-01  0.00000000E+00  1.19047619E-01
                       1.30952381E-01  0.00000000E+00  1.30952381E-01
                       1.42857143E-01  0.00000000E+00  1.42857143E-01
                       1.54761905E-01  0.00000000E+00  1.54761905E-01
                       1.66666667E-01  0.00000000E+00  1.66666667E-01
                       1.78571429E-01  0.00000000E+00  1.78571429E-01
                       1.90476190E-01  0.00000000E+00  1.90476190E-01
                       2.02380952E-01  0.00000000E+00  2.02380952E-01
                       2.14285714E-01  0.00000000E+00  2.14285714E-01
                       2.26190476E-01  0.00000000E+00  2.26190476E-01
                       2.38095238E-01  0.00000000E+00  2.38095238E-01
                       2.50000000E-01  0.00000000E+00  2.50000000E-01
                       2.61904762E-01  0.00000000E+00  2.61904762E-01
                       2.73809524E-01  0.00000000E+00  2.73809524E-01
                       2.85714286E-01  0.00000000E+00  2.85714286E-01
                       2.97619048E-01  0.00000000E+00  2.97619048E-01
                       3.09523810E-01  0.00000000E+00  3.09523810E-01
                       3.21428571E-01  0.00000000E+00  3.21428571E-01
                       3.33333333E-01  0.00000000E+00  3.33333333E-01
                       3.45238095E-01  0.00000000E+00  3.45238095E-01
                       3.57142857E-01  0.00000000E+00  3.57142857E-01
                       3.69047619E-01  0.00000000E+00  3.69047619E-01
                       3.80952381E-01  0.00000000E+00  3.80952381E-01
                       3.92857143E-01  0.00000000E+00  3.92857143E-01
                       4.04761905E-01  0.00000000E+00  4.04761905E-01
                       4.16666667E-01  0.00000000E+00  4.16666667E-01
                       4.28571429E-01  0.00000000E+00  4.28571429E-01
                       4.40476190E-01  0.00000000E+00  4.40476190E-01
                       4.52380952E-01  0.00000000E+00  4.52380952E-01
                       4.64285714E-01  0.00000000E+00  4.64285714E-01
                       4.76190476E-01  0.00000000E+00  4.76190476E-01
                       4.88095238E-01  0.00000000E+00  4.88095238E-01
                       5.00000000E-01  0.00000000E+00  5.00000000E-01
                       5.00000000E-01  1.19047619E-02  5.11904762E-01
                       5.00000000E-01  2.38095238E-02  5.23809524E-01
                       5.00000000E-01  3.57142857E-02  5.35714286E-01
                       5.00000000E-01  4.76190476E-02  5.47619048E-01
                       5.00000000E-01  5.95238095E-02  5.59523810E-01
                       5.00000000E-01  7.14285714E-02  5.71428571E-01
                       5.00000000E-01  8.33333333E-02  5.83333333E-01
                       outvar_i_n : Printing only first  50 k-points.
           kptopt         -11
P           mkmem         299
            natom           2
            nband           5
           nbdbuf           2
           ndivsm          15
            ngfft          15      15      15
             nkpt         299
             nsym          48
           ntypat           1
           occopt           3
            rprim      6.3285005735E+00  0.0000000000E+00  3.6537615097E+00
                       2.1095001912E+00  5.9665675604E+00  3.6537615097E+00
                       0.0000000000E+00  0.0000000000E+00  7.3075230194E+00
           shiftk      5.00000000E-01  5.00000000E-01  5.00000000E-01
          spgroup         227
           symrel      1  0  0   0  1  0   0  0  1      -1  0  0   0 -1  0   0  0 -1
                       0 -1  1   0 -1  0   1 -1  0       0  1 -1   0  1  0  -1  1  0
                      -1  0  0  -1  0  1  -1  1  0       1  0  0   1  0 -1   1 -1  0
                       0  1 -1   1  0 -1   0  0 -1       0 -1  1  -1  0  1   0  0  1
                      -1  0  0  -1  1  0  -1  0  1       1  0  0   1 -1  0   1  0 -1
                       0 -1  1   1 -1  0   0 -1  0       0  1 -1  -1  1  0   0  1  0
                       1  0  0   0  0  1   0  1  0      -1  0  0   0  0 -1   0 -1  0
                       0  1 -1   0  0 -1   1  0 -1       0 -1  1   0  0  1  -1  0  1
                      -1  0  1  -1  1  0  -1  0  0       1  0 -1   1 -1  0   1  0  0
                       0 -1  0   1 -1  0   0 -1  1       0  1  0  -1  1  0   0  1 -1
                       1  0 -1   0  0 -1   0  1 -1      -1  0  1   0  0  1   0 -1  1
                       0  1  0   0  0  1   1  0  0       0 -1  0   0  0 -1  -1  0  0
                       1  0 -1   0  1 -1   0  0 -1      -1  0  1   0 -1  1   0  0  1
                       0 -1  0   0 -1  1   1 -1  0       0  1  0   0  1 -1  -1  1  0
                      -1  0  1  -1  0  0  -1  1  0       1  0 -1   1  0  0   1 -1  0
                       0  1  0   1  0  0   0  0  1       0 -1  0  -1  0  0   0  0 -1
                       0  0 -1   0  1 -1   1  0 -1       0  0  1   0 -1  1  -1  0  1
                       1 -1  0   0 -1  1   0 -1  0      -1  1  0   0  1 -1   0  1  0
                       0  0  1   1  0  0   0  1  0       0  0 -1  -1  0  0   0 -1  0
                      -1  1  0  -1  0  0  -1  0  1       1 -1  0   1  0  0   1  0 -1
                       0  0  1   0  1  0   1  0  0       0  0 -1   0 -1  0  -1  0  0
                       1 -1  0   0 -1  0   0 -1  1      -1  1  0   0  1  0   0  1 -1
                       0  0 -1   1  0 -1   0  1 -1       0  0  1  -1  0  1   0 -1  1
                      -1  1  0  -1  0  1  -1  0  0       1 -1  0   1  0 -1   1  0  0
            tnons      0.0000000  0.0000000  0.0000000     0.2500000  0.2500000  0.2500000
                      -0.0000000  0.0000000  0.0000000     0.2500000  0.2500000  0.2500000
                       0.0000000  0.0000000  0.0000000     0.2500000  0.2500000  0.2500000
                      -0.0000000  0.0000000  0.0000000     0.2500000  0.2500000  0.2500000
                       0.0000000  0.0000000  0.0000000     0.2500000  0.2500000  0.2500000
                      -0.0000000  0.0000000  0.0000000     0.2500000  0.2500000  0.2500000
                       0.0000000  0.0000000  0.0000000     0.2500000  0.2500000  0.2500000
                      -0.0000000  0.0000000  0.0000000     0.2500000  0.2500000  0.2500000
                       0.0000000  0.0000000  0.0000000     0.2500000  0.2500000  0.2500000
                      -0.0000000  0.0000000  0.0000000     0.2500000  0.2500000  0.2500000
                       0.0000000  0.0000000  0.0000000     0.2500000  0.2500000  0.2500000
                      -0.0000000  0.0000000  0.0000000     0.2500000  0.2500000  0.2500000
                       0.0000000  0.0000000  0.0000000     0.2500000  0.2500000  0.2500000
                      -0.0000000  0.0000000  0.0000000     0.2500000  0.2500000  0.2500000
                       0.0000000  0.0000000  0.0000000     0.2500000  0.2500000  0.2500000
                      -0.0000000  0.0000000  0.0000000     0.2500000  0.2500000  0.2500000
                      -0.0000000  0.0000000  0.0000000     0.2500000  0.2500000  0.2500000
                       0.0000000  0.0000000  0.0000000     0.2500000  0.2500000  0.2500000
                      -0.0000000  0.0000000  0.0000000     0.2500000  0.2500000  0.2500000
                       0.0000000  0.0000000  0.0000000     0.2500000  0.2500000  0.2500000
                      -0.0000000  0.0000000  0.0000000     0.2500000  0.2500000  0.2500000
                       0.0000000  0.0000000  0.0000000     0.2500000  0.2500000  0.2500000
                      -0.0000000  0.0000000  0.0000000     0.2500000  0.2500000  0.2500000
                       0.0000000  0.0000000  0.0000000     0.2500000  0.2500000  0.2500000
           tolwfr      1.00000000E-17
           tsmear      3.67493222E-03 Hartree
            typat      1  1
                       outvars : Printing only first  50 k-points.
           xangst      1.1162994227E+00  7.8934289162E-01  1.9334873166E+00
                       0.0000000000E+00  0.0000000000E+00  0.0000000000E+00
            xcart      2.1095001912E+00  1.4916418901E+00  3.6537615097E+00
                       0.0000000000E+00  0.0000000000E+00  0.0000000000E+00
             xred      2.5000000000E-01  2.5000000000E-01  2.5000000000E-01
                       0.0000000000E+00  0.0000000000E+00  0.0000000000E+00
            znucl       14.00000

================================================================================

 chkinp: Checking input parameters for consistency.

================================================================================
== DATASET  1 ==================================================================
-   mpi_nproc: 1, omp_nthreads: -1 (-1 if OMP is not activated)


--- !DatasetInfo
iteration_state: {dtset: 1, }
dimensions: {natom: 2, nkpt: 299, mband: 5, nsppol: 1, nspinor: 1, nspden: 1, mpw: 113, }
cutoff_energies: {ecut:   4.0, pawecutdg:  -1.0, }
electrons: {nelect:   8.00000000E+00, charge:   0.00000000E+00, occopt:   3.00000000E+00, tsmear:   3.67493222E-03, }
meta: {optdriver: 0, ionmov: 0, optcell: 0, iscf: -2, paral_kgb: 0, }
...

 Exchange-correlation functional for the present dataset will be:
  GGA: Perdew-Burke-Ernzerhof functional - ixc=11
 Citation for XC functional:
  J.P.Perdew, K.Burke, M.Ernzerhof, PRL 77, 3865 (1996)

 Real(R)+Recip(G) space primitive vectors, cartesian coordinates (Bohr,Bohr^-1):
 R(1)=  6.3285006  0.0000000  3.6537615  G(1)=  0.1580153 -0.0558668  0.0000000
 R(2)=  2.1095002  5.9665676  3.6537615  G(2)=  0.0000000  0.1676005  0.0000000
 R(3)=  0.0000000  0.0000000  7.3075230  G(3)= -0.0790077 -0.0558668  0.1368453
 Unit cell volume ucvol=  2.7592788E+02 bohr^3
 Angles (23,13,12)=  6.00000000E+01  6.00000000E+01  6.00000000E+01 degrees

 getcut: wavevector=  0.0000  0.0000  0.0000  ngfft=  15  15  15
         ecut(hartree)=      4.000   => boxcut(ratio)=   2.13879

--- Pseudopotential description ------------------------------------------------
- pspini: atom type   1  psp file is /home/davidwaroquiers/.abinit/pseudos/ONCVPSP-PBE-SR-PDv0.4/Si/Si.psp8
- pspatm: opening atomic psp file    /home/davidwaroquiers/.abinit/pseudos/ONCVPSP-PBE-SR-PDv0.4/Si/Si.psp8
- Si    ONCVPSP-3.2.3.1  r_core=   1.60303   1.72197   1.91712
- 14.00000   4.00000    170510                znucl, zion, pspdat
    8   11    2    4       600   0.00000      pspcod,pspxc,lmax,lloc,mmax,r2well
    5.99000000000000    4.00000000000000    0.00000000000000   rchrg,fchrg,qchrg
     nproj     2     2     2
     extension_switch     1
  pspatm : epsatm=    9.34321699
         --- l  ekb(1:nproj) -->
             0    5.168965    0.829883
             1    2.571282    0.578307
             2   -2.427311   -0.488097
 pspatm: atomic psp has been read  and splines computed

--------------------------------------------------------------------------------


================================================================================
 prteigrs : about to open file outdata/out_EIG
 Non-SCF case, kpt    1 (  0.00000  0.00000  0.00000), residuals and eigenvalues=
  9.18E-18  9.36E-18  4.50E-18  3.44E-17  2.84E-12
 -2.6476E-01  1.5443E-01  1.5443E-01  1.5443E-01  2.4820E-01
  prteigrs : nnsclo,ikpt=   30    1 max resid (incl. the buffer)=  2.83567E-12
 Non-SCF case, kpt    2 (  0.01190  0.00000  0.01190), residuals and eigenvalues=
  7.10E-18  3.27E-18  8.90E-18  5.50E-18  1.45E-07
 -2.6467E-01  1.5390E-01  1.5403E-01  1.5403E-01  2.4868E-01
  prteigrs : nnsclo,ikpt=   30    2 max resid (incl. the buffer)=  1.45454E-07
 Non-SCF case, kpt    3 (  0.02381  0.00000  0.02381), residuals and eigenvalues=
  6.44E-18  6.22E-18  2.71E-18  7.58E-18  1.05E-05
 -2.6439E-01  1.5230E-01  1.5286E-01  1.5286E-01  2.4978E-01
  prteigrs : nnsclo,ikpt=   30    3 max resid (incl. the buffer)=  1.05052E-05
 Non-SCF case, kpt    4 (  0.03571  0.00000  0.03571), residuals and eigenvalues=
  5.95E-18  2.93E-18  6.15E-18  5.77E-18  5.42E-05
 -2.6393E-01  1.4973E-01  1.5097E-01  1.5097E-01  2.4846E-01
  prteigrs : nnsclo,ikpt=   30    4 max resid (incl. the buffer)=  5.42385E-05
 Non-SCF case, kpt    5 (  0.04762  0.00000  0.04762), residuals and eigenvalues=
  5.48E-18  7.10E-18  4.98E-18  1.31E-18  3.40E-05
 -2.6328E-01  1.4628E-01  1.4849E-01  1.4849E-01  2.4561E-01
  prteigrs : nnsclo,ikpt=   30    5 max resid (incl. the buffer)=  3.40421E-05
 Non-SCF case, kpt    6 (  0.05952  0.00000  0.05952), residuals and eigenvalues=
  4.18E-18  8.62E-18  7.74E-18  5.80E-18  2.60E-06
 -2.6244E-01  1.4207E-01  1.4552E-01  1.4552E-01  2.4394E-01
  prteigrs : nnsclo,ikpt=   30    6 max resid (incl. the buffer)=  2.59903E-06
 Non-SCF case, kpt    7 (  0.07143  0.00000  0.07143), residuals and eigenvalues=
  4.60E-18  4.63E-18  9.59E-18  3.16E-18  2.17E-06
 -2.6143E-01  1.3721E-01  1.4218E-01  1.4218E-01  2.4218E-01
  prteigrs : nnsclo,ikpt=   30    7 max resid (incl. the buffer)=  2.17205E-06
 Non-SCF case, kpt    8 (  0.08333  0.00000  0.08333), residuals and eigenvalues=
  5.98E-18  3.12E-18  5.02E-18  9.20E-18  1.15E-09
 -2.6022E-01  1.3181E-01  1.3855E-01  1.3855E-01  2.4019E-01
  prteigrs : nnsclo,ikpt=   30    8 max resid (incl. the buffer)=  1.15070E-09
 Non-SCF case, kpt    9 (  0.09524  0.00000  0.09524), residuals and eigenvalues=
  9.48E-18  1.88E-18  2.20E-18  4.47E-18  3.48E-09
 -2.5884E-01  1.2598E-01  1.3472E-01  1.3472E-01  2.3799E-01
  prteigrs : nnsclo,ikpt=   30    9 max resid (incl. the buffer)=  3.48022E-09
 Non-SCF case, kpt   10 (  0.10714  0.00000  0.10714), residuals and eigenvalues=
  5.07E-18  4.80E-18  4.30E-18  6.51E-18  7.15E-10
 -2.5727E-01  1.2109E-01  1.3076E-01  1.3076E-01  2.3564E-01
  prteigrs : nnsclo,ikpt=   30   10 max resid (incl. the buffer)=  7.15339E-10
 Non-SCF case, kpt   11 (  0.11905  0.00000  0.11905), residuals and eigenvalues=
  4.00E-18  3.34E-18  7.45E-18  1.01E-18  4.10E-10
 -2.5552E-01  1.1464E-01  1.2671E-01  1.2671E-01  2.3314E-01
  prteigrs : nnsclo,ikpt=   30   11 max resid (incl. the buffer)=  4.09683E-10
 Non-SCF case, kpt   12 (  0.13095  0.00000  0.13095), residuals and eigenvalues=
  2.29E-18  9.53E-18  4.17E-18  6.25E-18  1.09E-10
 -2.5358E-01  1.0793E-01  1.2263E-01  1.2263E-01  2.3055E-01
  prteigrs : nnsclo,ikpt=   30   12 max resid (incl. the buffer)=  1.09227E-10
 Non-SCF case, kpt   13 (  0.14286  0.00000  0.14286), residuals and eigenvalues=
  2.53E-18  2.92E-18  1.80E-18  1.69E-18  9.77E-12
 -2.5146E-01  1.0102E-01  1.1854E-01  1.1854E-01  2.2788E-01
  prteigrs : nnsclo,ikpt=   30   13 max resid (incl. the buffer)=  9.76605E-12
 Non-SCF case, kpt   14 (  0.15476  0.00000  0.15476), residuals and eigenvalues=
  6.18E-18  8.14E-18  1.66E-18  3.45E-18  1.62E-12
 -2.5133E-01  9.3884E-02  1.1419E-01  1.1419E-01  2.2476E-01
  prteigrs : nnsclo,ikpt=   30   14 max resid (incl. the buffer)=  1.61594E-12
 Non-SCF case, kpt   15 (  0.16667  0.00000  0.16667), residuals and eigenvalues=
  3.86E-18  3.01E-18  5.28E-18  8.93E-18  2.74E-13
 -2.4890E-01  8.6670E-02  1.1017E-01  1.1017E-01  2.2198E-01
  prteigrs : nnsclo,ikpt=   30   15 max resid (incl. the buffer)=  2.73817E-13
 Non-SCF case, kpt   16 (  0.17857  0.00000  0.17857), residuals and eigenvalues=
  2.52E-18  9.03E-18  9.43E-18  2.84E-18  5.03E-14
 -2.4629E-01  7.9343E-02  1.0622E-01  1.0622E-01  2.1920E-01
  prteigrs : nnsclo,ikpt=   30   16 max resid (incl. the buffer)=  5.02581E-14
 Non-SCF case, kpt   17 (  0.19048  0.00000  0.19048), residuals and eigenvalues=
  7.38E-19  2.57E-18  2.99E-18  2.18E-18  1.54E-15
 -2.4350E-01  7.3818E-02  1.0235E-01  1.0235E-01  2.1645E-01
  prteigrs : nnsclo,ikpt=   30   17 max resid (incl. the buffer)=  1.54069E-15
 Non-SCF case, kpt   18 (  0.20238  0.00000  0.20238), residuals and eigenvalues=
  8.26E-19  3.44E-18  7.05E-18  9.13E-18  6.37E-15
 -2.4054E-01  6.6350E-02  9.8565E-02  9.8565E-02  2.1375E-01
  prteigrs : nnsclo,ikpt=   30   18 max resid (incl. the buffer)=  6.36909E-15
 Non-SCF case, kpt   19 (  0.21429  0.00000  0.21429), residuals and eigenvalues=
  6.78E-19  7.39E-18  8.23E-18  2.09E-17  1.16E-12
 -2.3549E-01  6.0998E-02  9.5001E-02  9.5001E-02  2.1311E-01
  prteigrs : nnsclo,ikpt=   30   19 max resid (incl. the buffer)=  1.15687E-12
 Non-SCF case, kpt   20 (  0.22619  0.00000  0.22619), residuals and eigenvalues=
  7.13E-18  5.73E-18  7.90E-18  2.23E-17  1.83E-12
 -2.3220E-01  5.3367E-02  9.1425E-02  9.1425E-02  2.1054E-01
  prteigrs : nnsclo,ikpt=   30   20 max resid (incl. the buffer)=  1.82561E-12
 Non-SCF case, kpt   21 (  0.23810  0.00000  0.23810), residuals and eigenvalues=
  2.53E-18  4.00E-18  8.50E-18  2.99E-17  3.46E-12
 -2.2874E-01  4.5687E-02  8.7968E-02  8.7968E-02  2.0807E-01
  prteigrs : nnsclo,ikpt=   30   21 max resid (incl. the buffer)=  3.45860E-12
 Non-SCF case, kpt   22 (  0.25000  0.00000  0.25000), residuals and eigenvalues=
  2.27E-18  2.87E-18  7.96E-18  3.48E-17  3.47E-12
 -2.2511E-01  3.7972E-02  8.4636E-02  8.4636E-02  2.0569E-01
  prteigrs : nnsclo,ikpt=   30   22 max resid (incl. the buffer)=  3.47100E-12
 Non-SCF case, kpt   23 (  0.26190  0.00000  0.26190), residuals and eigenvalues=
  1.28E-18  2.02E-18  6.55E-18  3.52E-17  3.23E-12
 -2.2131E-01  3.0229E-02  8.1436E-02  8.1436E-02  2.0343E-01
  prteigrs : nnsclo,ikpt=   30   23 max resid (incl. the buffer)=  3.23146E-12
 Non-SCF case, kpt   24 (  0.27381  0.00000  0.27381), residuals and eigenvalues=
  3.77E-18  7.96E-18  4.63E-18  3.04E-17  3.31E-12
 -2.1733E-01  2.2470E-02  7.8370E-02  7.8370E-02  2.0130E-01
  prteigrs : nnsclo,ikpt=   30   24 max resid (incl. the buffer)=  3.31429E-12
 Non-SCF case, kpt   25 (  0.28571  0.00000  0.28571), residuals and eigenvalues=
  3.38E-18  7.23E-18  2.07E-18  5.82E-18  1.99E-12
 -2.1439E-01  1.4316E-02  7.5425E-02  7.5425E-02  1.9836E-01
  prteigrs : nnsclo,ikpt=   30   25 max resid (incl. the buffer)=  1.99478E-12
 Non-SCF case, kpt   26 (  0.29762  0.00000  0.29762), residuals and eigenvalues=
  2.46E-18  5.09E-18  3.22E-18  7.42E-18  3.57E-12
 -2.1011E-01  6.5344E-03  7.2644E-02  7.2644E-02  1.9646E-01
  prteigrs : nnsclo,ikpt=   30   26 max resid (incl. the buffer)=  3.57441E-12
 Non-SCF case, kpt   27 (  0.30952  0.00000  0.30952), residuals and eigenvalues=
  1.80E-18  3.35E-18  4.86E-18  8.63E-18  6.40E-12
 -2.0567E-01 -1.2393E-03  7.0008E-02  7.0008E-02  1.9471E-01
  prteigrs : nnsclo,ikpt=   30   27 max resid (incl. the buffer)=  6.39700E-12
 Non-SCF case, kpt   28 (  0.32143  0.00000  0.32143), residuals and eigenvalues=
  1.58E-18  2.18E-18  7.14E-18  9.82E-18  1.25E-11
 -2.0107E-01 -8.9979E-03  6.7522E-02  6.7522E-02  1.9313E-01
  prteigrs : nnsclo,ikpt=   30   28 max resid (incl. the buffer)=  1.24615E-11
 Non-SCF case, kpt   29 (  0.33333  0.00000  0.33333), residuals and eigenvalues=
  1.25E-18  5.19E-18  6.47E-18  4.39E-18  6.15E-13
 -1.9582E-01 -1.6734E-02  6.5186E-02  6.5186E-02  1.9239E-01
  prteigrs : nnsclo,ikpt=   30   29 max resid (incl. the buffer)=  6.14942E-13
 Non-SCF case, kpt   30 (  0.34524  0.00000  0.34524), residuals and eigenvalues=
  8.60E-19  3.25E-18  6.56E-18  4.78E-18  1.43E-13
 -1.9091E-01 -2.4441E-02  6.3004E-02  6.3004E-02  1.9114E-01
  prteigrs : nnsclo,ikpt=   30   30 max resid (incl. the buffer)=  1.42866E-13
 Non-SCF case, kpt   31 (  0.35714  0.00000  0.35714), residuals and eigenvalues=
  1.64E-18  2.14E-18  6.16E-18  3.92E-18  1.54E-13
 -1.8584E-01 -3.2111E-02  6.0977E-02  6.0977E-02  1.9007E-01
  prteigrs : nnsclo,ikpt=   30   31 max resid (incl. the buffer)=  1.53683E-13
 Non-SCF case, kpt   32 (  0.36905  0.00000  0.36905), residuals and eigenvalues=
  1.73E-18  1.31E-18  5.03E-18  1.70E-18  5.15E-12
 -1.8503E-01 -3.9903E-02  5.8941E-02  5.8941E-02  1.8854E-01
  prteigrs : nnsclo,ikpt=   30   32 max resid (incl. the buffer)=  5.15302E-12
 Non-SCF case, kpt   33 (  0.38095  0.00000  0.38095), residuals and eigenvalues=
  8.81E-18  1.00E-18  5.37E-18  2.87E-18  1.22E-11
 -1.7971E-01 -4.7467E-02  5.7233E-02  5.7233E-02  1.8785E-01
  prteigrs : nnsclo,ikpt=   30   33 max resid (incl. the buffer)=  1.21755E-11
 Non-SCF case, kpt   34 (  0.39286  0.00000  0.39286), residuals and eigenvalues=
  6.76E-18  9.05E-19  5.26E-18  4.72E-18  3.87E-11
 -1.7424E-01 -5.4976E-02  5.5684E-02  5.5684E-02  1.8736E-01
  prteigrs : nnsclo,ikpt=   30   34 max resid (incl. the buffer)=  3.87137E-11
 Non-SCF case, kpt   35 (  0.40476  0.00000  0.40476), residuals and eigenvalues=
  5.55E-18  9.88E-18  4.83E-18  5.93E-18  1.61E-10
 -1.6862E-01 -6.2422E-02  5.4295E-02  5.4295E-02  1.8707E-01
  prteigrs : nnsclo,ikpt=   30   35 max resid (incl. the buffer)=  1.61380E-10
 Non-SCF case, kpt   36 (  0.41667  0.00000  0.41667), residuals and eigenvalues=
  4.93E-18  8.84E-18  3.58E-18  4.53E-18  8.35E-10
 -1.6286E-01 -6.9801E-02  5.3067E-02  5.3067E-02  1.8699E-01
  prteigrs : nnsclo,ikpt=   30   36 max resid (incl. the buffer)=  8.35344E-10
 Non-SCF case, kpt   37 (  0.42857  0.00000  0.42857), residuals and eigenvalues=
  4.60E-18  7.74E-18  8.31E-18  1.58E-18  1.43E-07
 -1.5696E-01 -7.7104E-02  5.2002E-02  5.2002E-02  1.8712E-01
  prteigrs : nnsclo,ikpt=   30   37 max resid (incl. the buffer)=  1.42677E-07
 Non-SCF case, kpt   38 (  0.44048  0.00000  0.44048), residuals and eigenvalues=
  4.34E-18  6.34E-18  6.46E-19  4.80E-18  3.28E-07
 -1.5093E-01 -8.4328E-02  5.1099E-02  5.1099E-02  1.8747E-01
  prteigrs : nnsclo,ikpt=   30   38 max resid (incl. the buffer)=  3.27719E-07
 Non-SCF case, kpt   39 (  0.45238  0.00000  0.45238), residuals and eigenvalues=
  4.50E-18  4.32E-18  1.02E-18  1.37E-18  3.58E-07
 -1.4476E-01 -9.1465E-02  5.0360E-02  5.0360E-02  1.8804E-01
  prteigrs : nnsclo,ikpt=   30   39 max resid (incl. the buffer)=  3.57754E-07
 Non-SCF case, kpt   40 (  0.46429  0.00000  0.46429), residuals and eigenvalues=
  6.76E-18  1.31E-18  2.76E-18  9.92E-18  1.05E-06
 -1.3719E-01 -9.6869E-02  4.9797E-02  4.9797E-02  1.9006E-01
  prteigrs : nnsclo,ikpt=   30   40 max resid (incl. the buffer)=  1.04796E-06
 Non-SCF case, kpt   41 (  0.47619  0.00000  0.47619), residuals and eigenvalues=
  9.58E-18  1.29E-18  3.73E-18  8.38E-18  2.35E-09
 -1.3076E-01 -1.0386E-01  4.9385E-02  4.9385E-02  1.9105E-01
  prteigrs : nnsclo,ikpt=   30   41 max resid (incl. the buffer)=  2.34813E-09
 Non-SCF case, kpt   42 (  0.48810  0.00000  0.48810), residuals and eigenvalues=
  8.46E-18  1.86E-18  2.61E-18  8.80E-18  1.30E-09
 -1.2420E-01 -1.1075E-01  4.9139E-02  4.9139E-02  1.9228E-01
  prteigrs : nnsclo,ikpt=   30   42 max resid (incl. the buffer)=  1.29741E-09
 Non-SCF case, kpt   43 (  0.50000  0.00000  0.50000), residuals and eigenvalues=
  6.50E-18  8.58E-18  5.26E-18  1.32E-18  1.81E-12
 -1.1754E-01 -1.1753E-01  4.9056E-02  4.9056E-02  1.9374E-01
  prteigrs : nnsclo,ikpt=   30   43 max resid (incl. the buffer)=  1.80773E-12
 Non-SCF case, kpt   44 (  0.50000  0.01190  0.51190), residuals and eigenvalues=
  1.69E-18  1.84E-18  1.02E-18  1.04E-18  1.72E-12
 -1.1750E-01 -1.1750E-01  4.8808E-02  4.8808E-02  1.9422E-01
  prteigrs : nnsclo,ikpt=   30   44 max resid (incl. the buffer)=  1.72425E-12
 Non-SCF case, kpt   45 (  0.50000  0.02381  0.52381), residuals and eigenvalues=
  1.68E-18  2.06E-18  5.38E-18  3.13E-18  1.73E-12
 -1.1739E-01 -1.1739E-01  4.8074E-02  4.8074E-02  1.9562E-01
  prteigrs : nnsclo,ikpt=   30   45 max resid (incl. the buffer)=  1.73446E-12
 Non-SCF case, kpt   46 (  0.50000  0.03571  0.53571), residuals and eigenvalues=
  2.45E-18  2.70E-18  6.43E-18  2.96E-18  9.56E-13
 -1.1868E-01 -1.1868E-01  4.6869E-02  4.6869E-02  1.9679E-01
  prteigrs : nnsclo,ikpt=   30   46 max resid (incl. the buffer)=  9.56117E-13
 Non-SCF case, kpt   47 (  0.50000  0.04762  0.54762), residuals and eigenvalues=
  1.33E-18  4.72E-18  2.45E-18  7.14E-18  1.14E-12
 -1.1728E-01 -1.1727E-01  4.5342E-02  4.5342E-02  2.0028E-01
  prteigrs : nnsclo,ikpt=   30   47 max resid (incl. the buffer)=  1.14442E-12
 Non-SCF case, kpt   48 (  0.50000  0.05952  0.55952), residuals and eigenvalues=
  1.20E-18  8.78E-18  2.48E-18  4.42E-18  9.28E-13
 -1.1702E-01 -1.1702E-01  4.3417E-02  4.3417E-02  2.0421E-01
  prteigrs : nnsclo,ikpt=   30   48 max resid (incl. the buffer)=  9.27949E-13
 Non-SCF case, kpt   49 (  0.50000  0.07143  0.57143), residuals and eigenvalues=
  1.59E-18  2.12E-18  4.69E-18  7.12E-18  5.39E-13
 -1.1670E-01 -1.1670E-01  4.1227E-02  4.1227E-02  2.0885E-01
  prteigrs : nnsclo,ikpt=   30   49 max resid (incl. the buffer)=  5.39262E-13
 Non-SCF case, kpt   50 (  0.50000  0.08333  0.58333), residuals and eigenvalues=
  8.15E-18  1.83E-18  6.46E-19  1.38E-18  1.21E-12
 -1.1514E-01 -1.1514E-01  3.8873E-02  3.8873E-02  2.1458E-01
  prteigrs : nnsclo,ikpt=   30   50 max resid (incl. the buffer)=  1.20689E-12
 Non-SCF case, kpt   51 (  0.50000  0.09524  0.59524), residuals and eigenvalues=
  7.08E-18  1.43E-18  8.88E-18  8.79E-19  1.22E-12
 -1.1473E-01 -1.1473E-01  3.6361E-02  3.6361E-02  2.2047E-01
  prteigrs : nnsclo,ikpt=   30   51 max resid (incl. the buffer)=  1.22055E-12
 Non-SCF case, kpt   52 (  0.50000  0.10714  0.60714), residuals and eigenvalues=
  6.04E-18  1.63E-18  5.53E-18  9.78E-18  8.88E-13
 -1.1429E-01 -1.1429E-01  3.3789E-02  3.3789E-02  2.2690E-01
  prteigrs : nnsclo,ikpt=   30   52 max resid (incl. the buffer)=  8.87911E-13
 Non-SCF case, kpt   53 (  0.50000  0.11905  0.61905), residuals and eigenvalues=
  5.15E-18  1.74E-18  4.11E-18  4.76E-18  8.19E-13
 -1.1383E-01 -1.1383E-01  3.1215E-02  3.1215E-02  2.3380E-01
  prteigrs : nnsclo,ikpt=   30   53 max resid (incl. the buffer)=  8.18899E-13
 Non-SCF case, kpt   54 (  0.50000  0.13095  0.63095), residuals and eigenvalues=
  4.05E-18  1.89E-18  7.53E-18  9.67E-18  1.33E-12
 -1.1334E-01 -1.1334E-01  2.8694E-02  2.8694E-02  2.4112E-01
  prteigrs : nnsclo,ikpt=   30   54 max resid (incl. the buffer)=  1.33002E-12
 Non-SCF case, kpt   55 (  0.50000  0.14286  0.64286), residuals and eigenvalues=
  3.41E-18  3.27E-18  5.13E-18  6.27E-18  4.20E-12
 -1.1285E-01 -1.1285E-01  2.6271E-02  2.6271E-02  2.4882E-01
  prteigrs : nnsclo,ikpt=   30   55 max resid (incl. the buffer)=  4.20068E-12
 Non-SCF case, kpt   56 (  0.50000  0.15476  0.65476), residuals and eigenvalues=
  3.84E-18  4.82E-18  3.72E-18  4.05E-18  1.12E-11
 -1.1237E-01 -1.1236E-01  2.3991E-02  2.3991E-02  2.5686E-01
  prteigrs : nnsclo,ikpt=   30   56 max resid (incl. the buffer)=  1.12319E-11
 Non-SCF case, kpt   57 (  0.50000  0.16667  0.66667), residuals and eigenvalues=
  4.67E-18  6.53E-18  3.11E-18  2.90E-18  2.50E-12
 -1.1190E-01 -1.1189E-01  2.1889E-02  2.1889E-02  2.6519E-01
  prteigrs : nnsclo,ikpt=   30   57 max resid (incl. the buffer)=  2.49972E-12
 Non-SCF case, kpt   58 (  0.50000  0.17857  0.67857), residuals and eigenvalues=
  5.07E-18  8.23E-18  3.11E-18  2.29E-18  8.96E-13
 -1.1146E-01 -1.1145E-01  2.0000E-02  2.0000E-02  2.7378E-01
  prteigrs : nnsclo,ikpt=   30   58 max resid (incl. the buffer)=  8.96401E-13
 Non-SCF case, kpt   59 (  0.50000  0.19048  0.69048), residuals and eigenvalues=
  5.06E-18  9.68E-18  2.68E-18  1.56E-18  2.36E-12
 -1.1106E-01 -1.1105E-01  1.8352E-02  1.8352E-02  2.8256E-01
  prteigrs : nnsclo,ikpt=   30   59 max resid (incl. the buffer)=  2.36036E-12
 Non-SCF case, kpt   60 (  0.50000  0.20238  0.70238), residuals and eigenvalues=
  4.63E-18  9.13E-19  1.86E-18  9.74E-19  2.64E-11
 -1.1071E-01 -1.1071E-01  1.6970E-02  1.6970E-02  2.9145E-01
  prteigrs : nnsclo,ikpt=   30   60 max resid (incl. the buffer)=  2.63713E-11
 Non-SCF case, kpt   61 (  0.50000  0.21429  0.71429), residuals and eigenvalues=
  3.79E-18  9.45E-19  1.41E-18  8.25E-18  4.94E-10
 -1.1042E-01 -1.1042E-01  1.5874E-02  1.5874E-02  3.0031E-01
  prteigrs : nnsclo,ikpt=   30   61 max resid (incl. the buffer)=  4.93671E-10
 Non-SCF case, kpt   62 (  0.50000  0.22619  0.72619), residuals and eigenvalues=
  1.99E-18  1.15E-18  1.10E-18  3.20E-18  7.74E-11
 -1.1065E-01 -1.1065E-01  1.5078E-02  1.5078E-02  3.0839E-01
  prteigrs : nnsclo,ikpt=   30   62 max resid (incl. the buffer)=  7.74403E-11
 Non-SCF case, kpt   63 (  0.50000  0.23810  0.73810), residuals and eigenvalues=
  8.51E-19  6.41E-18  6.47E-18  3.61E-18  3.22E-10
 -1.1112E-01 -1.1112E-01  1.4594E-02  1.4594E-02  3.1546E-01
  prteigrs : nnsclo,ikpt=   30   63 max resid (incl. the buffer)=  3.22328E-10
 Non-SCF case, kpt   64 (  0.50000  0.25000  0.75000), residuals and eigenvalues=
  2.02E-18  7.57E-18  1.40E-18  3.37E-18  1.24E-09
 -1.1108E-01 -1.1108E-01  1.4432E-02  1.4432E-02  3.1862E-01
  prteigrs : nnsclo,ikpt=   30   64 max resid (incl. the buffer)=  1.24141E-09
 Non-SCF case, kpt   65 (  0.49167  0.25833  0.75000), residuals and eigenvalues=
  2.29E-18  2.05E-18  4.16E-18  2.08E-18  5.41E-05
 -1.1373E-01 -1.0850E-01  1.2427E-02  1.6755E-02  3.1422E-01
  prteigrs : nnsclo,ikpt=   30   65 max resid (incl. the buffer)=  5.41065E-05
 Non-SCF case, kpt   66 (  0.48333  0.26667  0.75000), residuals and eigenvalues=
  4.36E-18  4.25E-18  3.78E-18  2.55E-18  3.10E-06
 -1.1620E-01 -1.0624E-01  1.0540E-02  1.9583E-02  3.0459E-01
  prteigrs : nnsclo,ikpt=   30   66 max resid (incl. the buffer)=  3.10233E-06
 Non-SCF case, kpt   67 (  0.47500  0.27500  0.75000), residuals and eigenvalues=
  1.97E-18  6.46E-18  1.46E-18  7.80E-19  1.49E-07
 -1.1848E-01 -1.0372E-01  8.7771E-03  2.2879E-02  2.9443E-01
  prteigrs : nnsclo,ikpt=   30   67 max resid (incl. the buffer)=  1.49456E-07
 Non-SCF case, kpt   68 (  0.46667  0.28333  0.75000), residuals and eigenvalues=
  4.35E-18  4.91E-18  6.43E-18  4.40E-18  1.66E-08
 -1.1953E-01 -1.0166E-01  7.1533E-03  2.6592E-02  2.8434E-01
  prteigrs : nnsclo,ikpt=   30   68 max resid (incl. the buffer)=  1.65501E-08
 Non-SCF case, kpt   69 (  0.45833  0.29167  0.75000), residuals and eigenvalues=
  4.93E-18  5.87E-18  7.60E-18  5.52E-18  3.89E-10
 -1.2145E-01 -1.0031E-01  5.6487E-03  3.0658E-02  2.7405E-01
  prteigrs : nnsclo,ikpt=   30   69 max resid (incl. the buffer)=  3.88643E-10
 Non-SCF case, kpt   70 (  0.45000  0.30000  0.75000), residuals and eigenvalues=
  5.99E-18  6.90E-18  8.56E-18  6.63E-18  2.14E-11
 -1.2318E-01 -9.9210E-02  4.2785E-03  3.4994E-02  2.6407E-01
  prteigrs : nnsclo,ikpt=   30   70 max resid (incl. the buffer)=  2.14157E-11
 Non-SCF case, kpt   71 (  0.44167  0.30833  0.75000), residuals and eigenvalues=
  7.21E-18  7.67E-18  9.03E-18  7.59E-18  7.88E-12
 -1.2472E-01 -9.8321E-02  3.0456E-03  3.9504E-02  2.5454E-01
  prteigrs : nnsclo,ikpt=   30   71 max resid (incl. the buffer)=  7.88272E-12
 Non-SCF case, kpt   72 (  0.43333  0.31667  0.75000), residuals and eigenvalues=
  5.73E-18  2.86E-18  1.28E-18  2.82E-18  5.32E-11
 -1.2680E-01 -9.8107E-02  1.9259E-03  4.4051E-02  2.4549E-01
  prteigrs : nnsclo,ikpt=   30   72 max resid (incl. the buffer)=  5.31802E-11
 Non-SCF case, kpt   73 (  0.42500  0.32500  0.75000), residuals and eigenvalues=
  2.60E-18  2.41E-18  1.12E-18  3.05E-18  1.45E-11
 -1.2798E-01 -9.7562E-02  9.7390E-04  4.8543E-02  2.3725E-01
  prteigrs : nnsclo,ikpt=   30   73 max resid (incl. the buffer)=  1.44797E-11
 Non-SCF case, kpt   74 (  0.41667  0.33333  0.75000), residuals and eigenvalues=
  1.10E-18  1.93E-18  9.32E-19  2.99E-18  4.51E-12
 -1.2897E-01 -9.7145E-02  1.6549E-04  5.2811E-02  2.2983E-01
  prteigrs : nnsclo,ikpt=   30   74 max resid (incl. the buffer)=  4.50860E-12
 Non-SCF case, kpt   75 (  0.40833  0.34167  0.75000), residuals and eigenvalues=
  3.02E-18  1.47E-18  7.40E-19  2.58E-18  1.63E-12
 -1.2977E-01 -9.6834E-02 -4.9784E-04  5.6686E-02  2.2341E-01
  prteigrs : nnsclo,ikpt=   30   75 max resid (incl. the buffer)=  1.63218E-12
 Non-SCF case, kpt   76 (  0.40000  0.35000  0.75000), residuals and eigenvalues=
  3.71E-18  1.10E-18  9.94E-18  1.90E-18  6.98E-13
 -1.3039E-01 -9.6611E-02 -1.0149E-03  5.9981E-02  2.1814E-01
  prteigrs : nnsclo,ikpt=   30   76 max resid (incl. the buffer)=  6.98386E-13
 Non-SCF case, kpt   77 (  0.39167  0.35833  0.75000), residuals and eigenvalues=
  3.82E-18  3.48E-18  3.39E-18  8.03E-18  4.72E-13
 -1.2853E-01 -9.6010E-02 -1.3763E-03  6.2600E-02  2.1421E-01
  prteigrs : nnsclo,ikpt=   30   77 max resid (incl. the buffer)=  4.72226E-13
 Non-SCF case, kpt   78 (  0.38333  0.36667  0.75000), residuals and eigenvalues=
  3.03E-18  2.65E-18  2.89E-18  1.74E-18  2.87E-13
 -1.2882E-01 -9.5926E-02 -1.5986E-03  6.4196E-02  2.1178E-01
  prteigrs : nnsclo,ikpt=   30   78 max resid (incl. the buffer)=  2.86927E-13
 Non-SCF case, kpt   79 (  0.37500  0.37500  0.75000), residuals and eigenvalues=
  2.31E-18  2.00E-18  2.64E-18  1.79E-18  2.13E-13
 -1.2891E-01 -9.5898E-02 -1.6727E-03  6.4742E-02  2.1095E-01
  prteigrs : nnsclo,ikpt=   30   79 max resid (incl. the buffer)=  2.13346E-13
 Non-SCF case, kpt   80 (  0.36667  0.36667  0.73333), residuals and eigenvalues=
  1.92E-18  1.42E-18  2.18E-18  6.73E-18  5.23E-14
 -1.3176E-01 -9.3011E-02 -3.4519E-03  6.6809E-02  2.1333E-01
  prteigrs : nnsclo,ikpt=   30   80 max resid (incl. the buffer)=  5.23000E-14
 Non-SCF case, kpt   81 (  0.35833  0.35833  0.71667), residuals and eigenvalues=
  1.68E-18  1.12E-18  1.87E-18  4.84E-18  1.33E-14
 -1.3491E-01 -8.9936E-02 -4.6825E-03  6.8988E-02  2.1585E-01
  prteigrs : nnsclo,ikpt=   30   81 max resid (incl. the buffer)=  1.32552E-14
 Non-SCF case, kpt   82 (  0.35000  0.35000  0.70000), residuals and eigenvalues=
  1.08E-18  6.63E-19  4.34E-18  2.81E-18  1.28E-15
 -1.3791E-01 -8.6674E-02 -5.3688E-03  7.1275E-02  2.1850E-01
  prteigrs : nnsclo,ikpt=   30   82 max resid (incl. the buffer)=  1.28316E-15
 Non-SCF case, kpt   83 (  0.34167  0.34167  0.68333), residuals and eigenvalues=
  1.50E-18  5.14E-18  4.18E-18  2.61E-18  6.74E-16
 -1.4164E-01 -8.3226E-02 -5.5254E-03  7.3664E-02  2.2126E-01
  prteigrs : nnsclo,ikpt=   30   83 max resid (incl. the buffer)=  6.74443E-16
 Non-SCF case, kpt   84 (  0.33333  0.33333  0.66667), residuals and eigenvalues=
  2.03E-18  7.62E-18  4.37E-18  4.23E-18  4.22E-16
 -1.4561E-01 -7.9592E-02 -5.1751E-03  7.6149E-02  2.2414E-01
  prteigrs : nnsclo,ikpt=   30   84 max resid (incl. the buffer)=  4.22237E-16
 Non-SCF case, kpt   85 (  0.32500  0.32500  0.65000), residuals and eigenvalues=
  2.70E-18  5.58E-19  5.10E-18  8.11E-18  9.71E-16
 -1.4978E-01 -7.5773E-02 -4.3461E-03  7.8726E-02  2.2712E-01
  prteigrs : nnsclo,ikpt=   30   85 max resid (incl. the buffer)=  9.70702E-16
 Non-SCF case, kpt   86 (  0.31667  0.31667  0.63333), residuals and eigenvalues=
  3.51E-18  8.12E-19  7.44E-18  1.85E-18  2.67E-15
 -1.5411E-01 -7.1771E-02 -3.0690E-03  8.1387E-02  2.3020E-01
  prteigrs : nnsclo,ikpt=   30   86 max resid (incl. the buffer)=  2.66762E-15
 Non-SCF case, kpt   87 (  0.30833  0.30833  0.61667), residuals and eigenvalues=
  4.42E-18  1.23E-18  6.36E-19  3.56E-18  7.79E-15
 -1.5857E-01 -6.7586E-02 -1.3752E-03  8.4126E-02  2.3337E-01
  prteigrs : nnsclo,ikpt=   30   87 max resid (incl. the buffer)=  7.79461E-15
 Non-SCF case, kpt   88 (  0.30000  0.30000  0.60000), residuals and eigenvalues=
  2.34E-18  5.88E-18  1.26E-18  8.23E-18  1.84E-14
 -1.6422E-01 -6.3220E-02  5.4769E-04  8.6934E-02  2.3661E-01
  prteigrs : nnsclo,ikpt=   30   88 max resid (incl. the buffer)=  1.84320E-14
 Non-SCF case, kpt   89 (  0.29167  0.29167  0.58333), residuals and eigenvalues=
  2.79E-18  8.38E-18  1.90E-18  1.80E-18  6.30E-14
 -1.6884E-01 -5.8673E-02  2.9689E-03  8.9804E-02  2.3991E-01
  prteigrs : nnsclo,ikpt=   30   89 max resid (incl. the buffer)=  6.29862E-14
 Non-SCF case, kpt   90 (  0.28333  0.28333  0.56667), residuals and eigenvalues=
  3.13E-18  8.26E-19  2.88E-18  3.61E-18  2.41E-13
 -1.7350E-01 -5.3948E-02  5.7207E-03  9.2726E-02  2.4325E-01
  prteigrs : nnsclo,ikpt=   30   90 max resid (incl. the buffer)=  2.41000E-13
 Non-SCF case, kpt   91 (  0.27500  0.27500  0.55000), residuals and eigenvalues=
  3.23E-18  1.30E-18  4.37E-18  7.31E-18  9.60E-13
 -1.7816E-01 -4.9045E-02  8.7783E-03  9.5692E-02  2.4661E-01
  prteigrs : nnsclo,ikpt=   30   91 max resid (incl. the buffer)=  9.59941E-13
 Non-SCF case, kpt   92 (  0.26667  0.26667  0.53333), residuals and eigenvalues=
  2.94E-18  2.04E-18  6.73E-18  3.99E-18  3.82E-12
 -1.8281E-01 -4.3966E-02  1.2119E-02  9.8692E-02  2.4998E-01
  prteigrs : nnsclo,ikpt=   30   92 max resid (incl. the buffer)=  3.82171E-12
 Non-SCF case, kpt   93 (  0.25833  0.25833  0.51667), residuals and eigenvalues=
  5.99E-19  8.50E-18  3.75E-18  7.13E-18  5.61E-11
 -1.8833E-01 -3.9417E-02  1.5573E-02  1.0163E-01  2.5301E-01
  prteigrs : nnsclo,ikpt=   30   93 max resid (incl. the buffer)=  5.60855E-11
 Non-SCF case, kpt   94 (  0.25000  0.25000  0.50000), residuals and eigenvalues=
  6.77E-18  1.38E-18  5.69E-18  1.74E-17  2.15E-10
 -1.9289E-01 -3.3990E-02  1.9410E-02  1.0465E-01  2.5631E-01
  prteigrs : nnsclo,ikpt=   30   94 max resid (incl. the buffer)=  2.15354E-10
 Non-SCF case, kpt   95 (  0.24167  0.24167  0.48333), residuals and eigenvalues=
  5.16E-18  5.48E-18  2.99E-18  3.28E-17  3.93E-10
 -1.9560E-01 -2.6995E-02  2.3607E-02  1.0775E-01  2.6052E-01
  prteigrs : nnsclo,ikpt=   30   95 max resid (incl. the buffer)=  3.93459E-10
 Non-SCF case, kpt   96 (  0.23333  0.23333  0.46667), residuals and eigenvalues=
  6.05E-18  7.46E-18  5.40E-18  6.32E-17  1.91E-09
 -2.0006E-01 -2.1277E-02  2.7878E-02  1.1075E-01  2.6367E-01
  prteigrs : nnsclo,ikpt=   30   96 max resid (incl. the buffer)=  1.90748E-09
 Non-SCF case, kpt   97 (  0.22500  0.22500  0.45000), residuals and eigenvalues=
  9.87E-18  9.79E-18  9.65E-18  1.21E-16  1.06E-08
 -2.0442E-01 -1.5394E-02  3.2343E-02  1.1373E-01  2.6667E-01
  prteigrs : nnsclo,ikpt=   30   97 max resid (incl. the buffer)=  1.06230E-08
 Non-SCF case, kpt   98 (  0.21667  0.21667  0.43333), residuals and eigenvalues=
  3.00E-18  1.68E-18  1.95E-18  2.35E-16  7.10E-08
 -2.0867E-01 -9.3472E-03  3.6986E-02  1.1666E-01  2.6949E-01
  prteigrs : nnsclo,ikpt=   30   98 max resid (incl. the buffer)=  7.09808E-08
 Non-SCF case, kpt   99 (  0.20833  0.20833  0.41667), residuals and eigenvalues=
  3.84E-18  2.04E-18  3.63E-18  4.36E-16  5.30E-07
 -2.1280E-01 -3.1411E-03  4.1794E-02  1.1954E-01  2.7208E-01
  prteigrs : nnsclo,ikpt=   30   99 max resid (incl. the buffer)=  5.29519E-07
 Non-SCF case, kpt  100 (  0.20000  0.20000  0.40000), residuals and eigenvalues=
  3.43E-18  2.20E-18  5.57E-18  6.80E-16  2.91E-06
 -2.1681E-01  3.2210E-03  4.6753E-02  1.2236E-01  2.7443E-01
  prteigrs : nnsclo,ikpt=   30  100 max resid (incl. the buffer)=  2.91261E-06
 Non-SCF case, kpt  101 (  0.19167  0.19167  0.38333), residuals and eigenvalues=
  2.10E-18  2.37E-18  6.04E-18  7.27E-16  6.11E-06
 -2.2069E-01  9.7350E-03  5.1849E-02  1.2509E-01  2.7649E-01
  prteigrs : nnsclo,ikpt=   30  101 max resid (incl. the buffer)=  6.10950E-06
 Non-SCF case, kpt  102 (  0.18333  0.18333  0.36667), residuals and eigenvalues=
  1.48E-18  2.74E-18  6.23E-18  4.32E-16  1.30E-05
 -2.2443E-01  1.6396E-02  5.7069E-02  1.2774E-01  2.7830E-01
  prteigrs : nnsclo,ikpt=   30  102 max resid (incl. the buffer)=  1.30277E-05
 Non-SCF case, kpt  103 (  0.17500  0.17500  0.35000), residuals and eigenvalues=
  1.48E-18  3.31E-18  8.62E-18  8.20E-16  6.11E-05
 -2.2802E-01  2.3199E-02  6.2398E-02  1.3028E-01  2.8046E-01
  prteigrs : nnsclo,ikpt=   30  103 max resid (incl. the buffer)=  6.11271E-05
 Non-SCF case, kpt  104 (  0.16667  0.16667  0.33333), residuals and eigenvalues=
  3.70E-18  2.69E-18  5.73E-18  1.72E-17  6.46E-05
 -2.3147E-01  2.7572E-02  6.7818E-02  1.3272E-01  2.7846E-01
  prteigrs : nnsclo,ikpt=   30  104 max resid (incl. the buffer)=  6.46259E-05
 Non-SCF case, kpt  105 (  0.15833  0.15833  0.31667), residuals and eigenvalues=
  2.38E-18  8.43E-19  2.38E-18  3.37E-17  3.91E-07
 -2.3369E-01  3.4829E-02  7.3320E-02  1.3503E-01  2.7843E-01
  prteigrs : nnsclo,ikpt=   30  105 max resid (incl. the buffer)=  3.90804E-07
 Non-SCF case, kpt  106 (  0.15000  0.15000  0.30000), residuals and eigenvalues=
  5.41E-18  1.02E-18  8.11E-18  3.13E-17  1.52E-06
 -2.3785E-01  4.0673E-02  7.8792E-02  1.3715E-01  2.7678E-01
  prteigrs : nnsclo,ikpt=   30  106 max resid (incl. the buffer)=  1.51974E-06
 Non-SCF case, kpt  107 (  0.14167  0.14167  0.28333), residuals and eigenvalues=
  7.70E-18  2.08E-18  4.60E-18  6.93E-17  3.87E-06
 -2.4086E-01  4.7998E-02  8.4406E-02  1.3920E-01  2.7648E-01
  prteigrs : nnsclo,ikpt=   30  107 max resid (incl. the buffer)=  3.87332E-06
 Non-SCF case, kpt  108 (  0.13333  0.13333  0.26667), residuals and eigenvalues=
  1.69E-18  4.36E-18  1.90E-18  1.41E-16  4.42E-05
 -2.4371E-01  5.5432E-02  9.0045E-02  1.4111E-01  2.7475E-01
  prteigrs : nnsclo,ikpt=   30  108 max resid (incl. the buffer)=  4.41592E-05
 Non-SCF case, kpt  109 (  0.12500  0.12500  0.25000), residuals and eigenvalues=
  2.47E-18  9.76E-18  3.69E-18  2.45E-16  9.94E-05
 -2.4639E-01  6.2961E-02  9.5687E-02  1.4288E-01  2.7141E-01
  prteigrs : nnsclo,ikpt=   30  109 max resid (incl. the buffer)=  9.94029E-05
 Non-SCF case, kpt  110 (  0.11667  0.11667  0.23333), residuals and eigenvalues=
  3.63E-18  3.75E-18  7.93E-18  3.50E-16  1.03E-04
 -2.4890E-01  7.0571E-02  1.0131E-01  1.4451E-01  2.6776E-01
  prteigrs : nnsclo,ikpt=   30  110 max resid (incl. the buffer)=  1.03289E-04
 Non-SCF case, kpt  111 (  0.10833  0.10833  0.21667), residuals and eigenvalues=
  5.46E-18  2.97E-18  3.68E-18  4.05E-16  6.97E-05
 -2.5125E-01  7.8243E-02  1.0688E-01  1.4600E-01  2.6460E-01
  prteigrs : nnsclo,ikpt=   30  111 max resid (incl. the buffer)=  6.96819E-05
 Non-SCF case, kpt  112 (  0.10000  0.10000  0.20000), residuals and eigenvalues=
  7.07E-18  3.46E-18  2.17E-18  9.27E-18  2.36E-07
 -2.5177E-01  8.5896E-02  1.1244E-01  1.4741E-01  2.6186E-01
  prteigrs : nnsclo,ikpt=   30  112 max resid (incl. the buffer)=  2.36207E-07
 Non-SCF case, kpt  113 (  0.09167  0.09167  0.18333), residuals and eigenvalues=
  1.44E-18  1.78E-18  3.60E-18  2.86E-16  1.24E-06
 -2.5384E-01  9.2303E-02  1.1782E-01  1.4862E-01  2.5937E-01
  prteigrs : nnsclo,ikpt=   30  113 max resid (incl. the buffer)=  1.23663E-06
 Non-SCF case, kpt  114 (  0.08333  0.08333  0.16667), residuals and eigenvalues=
  1.58E-18  6.82E-18  4.13E-18  5.49E-16  1.59E-06
 -2.5572E-01  1.0005E-01  1.2307E-01  1.4970E-01  2.5744E-01
  prteigrs : nnsclo,ikpt=   30  114 max resid (incl. the buffer)=  1.59332E-06
 Non-SCF case, kpt  115 (  0.07500  0.07500  0.15000), residuals and eigenvalues=
  1.84E-18  7.77E-18  5.61E-18  1.76E-17  6.78E-06
 -2.5743E-01  1.0773E-01  1.2812E-01  1.5066E-01  2.5568E-01
  prteigrs : nnsclo,ikpt=   30  115 max resid (incl. the buffer)=  6.78239E-06
 Non-SCF case, kpt  116 (  0.06667  0.06667  0.13333), residuals and eigenvalues=
  6.90E-18  3.35E-18  2.72E-18  2.10E-17  3.41E-05
 -2.5897E-01  1.1489E-01  1.3292E-01  1.5149E-01  2.5442E-01
  prteigrs : nnsclo,ikpt=   30  116 max resid (incl. the buffer)=  3.40997E-05
 Non-SCF case, kpt  117 (  0.05833  0.05833  0.11667), residuals and eigenvalues=
  6.77E-18  4.74E-18  9.16E-18  3.15E-17  3.70E-05
 -2.6032E-01  1.2226E-01  1.3742E-01  1.5221E-01  2.5323E-01
  prteigrs : nnsclo,ikpt=   30  117 max resid (incl. the buffer)=  3.69963E-05
 Non-SCF case, kpt  118 (  0.05000  0.05000  0.10000), residuals and eigenvalues=
  6.09E-18  7.73E-18  2.89E-18  4.21E-17  3.08E-05
 -2.6150E-01  1.2933E-01  1.4154E-01  1.5282E-01  2.5217E-01
  prteigrs : nnsclo,ikpt=   30  118 max resid (incl. the buffer)=  3.08423E-05
 Non-SCF case, kpt  119 (  0.04167  0.04167  0.08333), residuals and eigenvalues=
  3.92E-18  3.47E-18  7.20E-18  7.60E-17  2.12E-05
 -2.6249E-01  1.3595E-01  1.4523E-01  1.5332E-01  2.5120E-01
  prteigrs : nnsclo,ikpt=   30  119 max resid (incl. the buffer)=  2.11786E-05
 Non-SCF case, kpt  120 (  0.03333  0.03333  0.06667), residuals and eigenvalues=
  4.32E-18  3.78E-18  3.57E-18  3.16E-18  2.95E-05
 -2.6331E-01  1.4194E-01  1.4840E-01  1.5373E-01  2.5024E-01
  prteigrs : nnsclo,ikpt=   30  120 max resid (incl. the buffer)=  2.94983E-05
 Non-SCF case, kpt  121 (  0.02500  0.02500  0.05000), residuals and eigenvalues=
  5.56E-18  6.08E-18  2.54E-18  6.92E-18  1.54E-05
 -2.6394E-01  1.4705E-01  1.5097E-01  1.5404E-01  2.4987E-01
  prteigrs : nnsclo,ikpt=   30  121 max resid (incl. the buffer)=  1.53653E-05
 Non-SCF case, kpt  122 (  0.01667  0.01667  0.03333), residuals and eigenvalues=
  4.30E-18  4.54E-18  2.46E-18  9.89E-18  3.66E-06
 -2.6440E-01  1.5102E-01  1.5287E-01  1.5426E-01  2.4925E-01
  prteigrs : nnsclo,ikpt=   30  122 max resid (incl. the buffer)=  3.66345E-06
 Non-SCF case, kpt  123 (  0.00833  0.00833  0.01667), residuals and eigenvalues=
  6.45E-18  2.02E-18  4.62E-18  8.43E-18  3.74E-07
 -2.6467E-01  1.5356E-01  1.5404E-01  1.5439E-01  2.4854E-01
  prteigrs : nnsclo,ikpt=   30  123 max resid (incl. the buffer)=  3.73607E-07
 Non-SCF case, kpt  124 (  0.00000  0.00000  0.00000), residuals and eigenvalues=
  9.18E-18  9.36E-18  4.50E-18  3.44E-17  2.84E-12
 -2.6476E-01  1.5443E-01  1.5443E-01  1.5443E-01  2.4820E-01
  prteigrs : nnsclo,ikpt=   30  124 max resid (incl. the buffer)=  2.83567E-12
 Non-SCF case, kpt  125 (  0.01351  0.01351  0.01351), residuals and eigenvalues=
  5.92E-18  1.78E-18  8.07E-18  7.50E-18  5.66E-08
 -2.6467E-01  1.5346E-01  1.5428E-01  1.5428E-01  2.4849E-01
  prteigrs : nnsclo,ikpt=   30  125 max resid (incl. the buffer)=  5.65547E-08
 Non-SCF case, kpt  126 (  0.02703  0.02703  0.02703), residuals and eigenvalues=
  5.36E-18  5.14E-18  9.45E-18  6.12E-18  5.09E-07
 -2.6440E-01  1.5062E-01  1.5381E-01  1.5381E-01  2.4927E-01
  prteigrs : nnsclo,ikpt=   30  126 max resid (incl. the buffer)=  5.09407E-07
 Non-SCF case, kpt  127 (  0.04054  0.04054  0.04054), residuals and eigenvalues=
  5.83E-18  6.04E-18  7.37E-18  3.23E-18  1.10E-06
 -2.6395E-01  1.4618E-01  1.5305E-01  1.5305E-01  2.5041E-01
  prteigrs : nnsclo,ikpt=   30  127 max resid (incl. the buffer)=  1.09512E-06
 Non-SCF case, kpt  128 (  0.05405  0.05405  0.05405), residuals and eigenvalues=
  6.48E-18  7.31E-18  3.07E-18  3.12E-18  4.52E-07
 -2.6333E-01  1.4044E-01  1.5202E-01  1.5202E-01  2.5184E-01
  prteigrs : nnsclo,ikpt=   30  128 max resid (incl. the buffer)=  4.52081E-07
 Non-SCF case, kpt  129 (  0.06757  0.06757  0.06757), residuals and eigenvalues=
  6.54E-18  4.60E-18  9.56E-18  7.95E-18  2.94E-07
 -2.6252E-01  1.3370E-01  1.5075E-01  1.5075E-01  2.5327E-01
  prteigrs : nnsclo,ikpt=   30  129 max resid (incl. the buffer)=  2.94223E-07
 Non-SCF case, kpt  130 (  0.08108  0.08108  0.08108), residuals and eigenvalues=
  5.53E-18  5.20E-18  5.40E-18  4.16E-18  5.09E-06
 -2.6154E-01  1.2622E-01  1.4928E-01  1.4928E-01  2.5412E-01
  prteigrs : nnsclo,ikpt=   30  130 max resid (incl. the buffer)=  5.08503E-06
 Non-SCF case, kpt  131 (  0.09459  0.09459  0.09459), residuals and eigenvalues=
  3.61E-18  6.58E-18  3.41E-18  5.33E-18  1.55E-05
 -2.6038E-01  1.1820E-01  1.4765E-01  1.4765E-01  2.5416E-01
  prteigrs : nnsclo,ikpt=   30  131 max resid (incl. the buffer)=  1.55378E-05
 Non-SCF case, kpt  132 (  0.10811  0.10811  0.10811), residuals and eigenvalues=
  8.73E-18  1.41E-18  2.55E-18  7.86E-18  4.76E-06
 -2.5905E-01  1.0979E-01  1.4589E-01  1.4589E-01  2.5365E-01
  prteigrs : nnsclo,ikpt=   30  132 max resid (incl. the buffer)=  4.76152E-06
 Non-SCF case, kpt  133 (  0.12162  0.12162  0.12162), residuals and eigenvalues=
  5.76E-18  7.99E-18  8.47E-18  1.91E-18  5.27E-07
 -2.5754E-01  1.0110E-01  1.4403E-01  1.4403E-01  2.5309E-01
  prteigrs : nnsclo,ikpt=   30  133 max resid (incl. the buffer)=  5.27235E-07
 Non-SCF case, kpt  134 (  0.13514  0.13514  0.13514), residuals and eigenvalues=
  1.11E-18  2.70E-18  6.04E-18  6.72E-17  2.63E-06
 -2.5586E-01  9.3503E-02  1.4212E-01  1.4212E-01  2.5671E-01
  prteigrs : nnsclo,ikpt=   30  134 max resid (incl. the buffer)=  2.63008E-06
 Non-SCF case, kpt  135 (  0.14865  0.14865  0.14865), residuals and eigenvalues=
  8.95E-18  7.62E-18  2.31E-18  2.38E-17  2.86E-07
 -2.5400E-01  8.4530E-02  1.4014E-01  1.4014E-01  2.5591E-01
  prteigrs : nnsclo,ikpt=   30  135 max resid (incl. the buffer)=  2.85747E-07
 Non-SCF case, kpt  136 (  0.16216  0.16216  0.16216), residuals and eigenvalues=
  7.56E-18  2.20E-18  7.46E-18  2.15E-18  4.06E-09
 -2.5364E-01  7.5258E-02  1.3814E-01  1.3814E-01  2.5454E-01
  prteigrs : nnsclo,ikpt=   30  136 max resid (incl. the buffer)=  4.06118E-09
 Non-SCF case, kpt  137 (  0.17568  0.17568  0.17568), residuals and eigenvalues=
  5.88E-18  8.39E-18  3.88E-18  2.16E-18  2.55E-10
 -2.5148E-01  6.6192E-02  1.3615E-01  1.3615E-01  2.5338E-01
  prteigrs : nnsclo,ikpt=   30  137 max resid (incl. the buffer)=  2.55205E-10
 Non-SCF case, kpt  138 (  0.18919  0.18919  0.18919), residuals and eigenvalues=
  3.71E-18  3.35E-18  2.67E-18  6.29E-18  5.34E-10
 -2.4843E-01  5.7521E-02  1.3420E-01  1.3420E-01  2.5625E-01
  prteigrs : nnsclo,ikpt=   30  138 max resid (incl. the buffer)=  5.34396E-10
 Non-SCF case, kpt  139 (  0.20270  0.20270  0.20270), residuals and eigenvalues=
  2.74E-18  2.58E-18  2.88E-18  2.26E-18  4.06E-11
 -2.4596E-01  4.8465E-02  1.3226E-01  1.3226E-01  2.5487E-01
  prteigrs : nnsclo,ikpt=   30  139 max resid (incl. the buffer)=  4.06442E-11
 Non-SCF case, kpt  140 (  0.21622  0.21622  0.21622), residuals and eigenvalues=
  1.93E-18  7.54E-18  7.35E-18  9.75E-18  1.61E-09
 -2.4333E-01  3.9464E-02  1.3035E-01  1.3035E-01  2.5345E-01
  prteigrs : nnsclo,ikpt=   30  140 max resid (incl. the buffer)=  1.60798E-09
 Non-SCF case, kpt  141 (  0.22973  0.22973  0.22973), residuals and eigenvalues=
  9.07E-18  2.84E-18  4.96E-18  6.68E-18  1.43E-09
 -2.4055E-01  3.0539E-02  1.2850E-01  1.2850E-01  2.5201E-01
  prteigrs : nnsclo,ikpt=   30  141 max resid (incl. the buffer)=  1.43204E-09
 Non-SCF case, kpt  142 (  0.24324  0.24324  0.24324), residuals and eigenvalues=
  7.09E-18  1.57E-18  3.18E-18  4.01E-18  1.38E-09
 -2.3761E-01  2.1710E-02  1.2671E-01  1.2671E-01  2.5057E-01
  prteigrs : nnsclo,ikpt=   30  142 max resid (incl. the buffer)=  1.37565E-09
 Non-SCF case, kpt  143 (  0.25676  0.25676  0.25676), residuals and eigenvalues=
  2.45E-18  5.45E-18  2.35E-18  6.67E-18  9.51E-09
 -2.3381E-01  1.3559E-02  1.2504E-01  1.2504E-01  2.4935E-01
  prteigrs : nnsclo,ikpt=   30  143 max resid (incl. the buffer)=  9.51171E-09
 Non-SCF case, kpt  144 (  0.27027  0.27027  0.27027), residuals and eigenvalues=
  2.00E-18  3.97E-18  1.82E-18  7.42E-18  5.93E-09
 -2.3060E-01  4.9680E-03  1.2339E-01  1.2339E-01  2.4797E-01
  prteigrs : nnsclo,ikpt=   30  144 max resid (incl. the buffer)=  5.92679E-09
 Non-SCF case, kpt  145 (  0.28378  0.28378  0.28378), residuals and eigenvalues=
  1.57E-18  3.03E-18  1.35E-18  6.79E-18  3.94E-09
 -2.2724E-01 -3.4793E-03  1.2181E-01  1.2181E-01  2.4663E-01
  prteigrs : nnsclo,ikpt=   30  145 max resid (incl. the buffer)=  3.94128E-09
 Non-SCF case, kpt  146 (  0.29730  0.29730  0.29730), residuals and eigenvalues=
  1.26E-18  2.37E-18  9.71E-19  5.44E-18  2.76E-09
 -2.2376E-01 -1.1766E-02  1.2032E-01  1.2032E-01  2.4535E-01
  prteigrs : nnsclo,ikpt=   30  146 max resid (incl. the buffer)=  2.76474E-09
 Non-SCF case, kpt  147 (  0.31081  0.31081  0.31081), residuals and eigenvalues=
  1.08E-18  1.91E-18  9.13E-18  3.98E-18  2.03E-09
 -2.2016E-01 -1.9874E-02  1.1891E-01  1.1891E-01  2.4413E-01
  prteigrs : nnsclo,ikpt=   30  147 max resid (incl. the buffer)=  2.02650E-09
 Non-SCF case, kpt  148 (  0.32432  0.32432  0.32432), residuals and eigenvalues=
  1.86E-18  7.80E-18  2.98E-18  1.54E-18  1.31E-09
 -2.1679E-01 -2.7922E-02  1.1759E-01  1.1759E-01  2.4118E-01
  prteigrs : nnsclo,ikpt=   30  148 max resid (incl. the buffer)=  1.31407E-09
 Non-SCF case, kpt  149 (  0.33784  0.33784  0.33784), residuals and eigenvalues=
  7.42E-18  1.57E-18  3.49E-18  4.15E-18  1.85E-10
 -2.1635E-01 -3.3645E-02  1.1604E-01  1.1604E-01  2.4261E-01
  prteigrs : nnsclo,ikpt=   30  149 max resid (incl. the buffer)=  1.85386E-10
 Non-SCF case, kpt  150 (  0.35135  0.35135  0.35135), residuals and eigenvalues=
  6.05E-18  8.75E-18  3.05E-18  3.87E-18  3.11E-10
 -2.1256E-01 -4.1116E-02  1.1491E-01  1.1491E-01  2.4158E-01
  prteigrs : nnsclo,ikpt=   30  150 max resid (incl. the buffer)=  3.11318E-10
 Non-SCF case, kpt  151 (  0.36486  0.36486  0.36486), residuals and eigenvalues=
  4.98E-18  7.96E-18  2.70E-18  3.58E-18  4.28E-10
 -2.0874E-01 -4.8314E-02  1.1388E-01  1.1388E-01  2.4062E-01
  prteigrs : nnsclo,ikpt=   30  151 max resid (incl. the buffer)=  4.28025E-10
 Non-SCF case, kpt  152 (  0.37838  0.37838  0.37838), residuals and eigenvalues=
  4.00E-18  7.05E-18  2.41E-18  3.21E-18  5.04E-10
 -2.0491E-01 -5.5204E-02  1.1294E-01  1.1294E-01  2.3975E-01
  prteigrs : nnsclo,ikpt=   30  152 max resid (incl. the buffer)=  5.03975E-10
 Non-SCF case, kpt  153 (  0.39189  0.39189  0.39189), residuals and eigenvalues=
  3.14E-18  6.40E-18  2.16E-18  2.81E-18  5.31E-10
 -2.0111E-01 -6.1742E-02  1.1210E-01  1.1210E-01  2.3897E-01
  prteigrs : nnsclo,ikpt=   30  153 max resid (incl. the buffer)=  5.31117E-10
 Non-SCF case, kpt  154 (  0.40541  0.40541  0.40541), residuals and eigenvalues=
  2.58E-18  6.53E-18  1.95E-18  2.42E-18  5.24E-10
 -1.9739E-01 -6.7873E-02  1.1136E-01  1.1136E-01  2.3828E-01
  prteigrs : nnsclo,ikpt=   30  154 max resid (incl. the buffer)=  5.23833E-10
 Non-SCF case, kpt  155 (  0.41892  0.41892  0.41892), residuals and eigenvalues=
  1.99E-18  7.16E-18  1.76E-18  2.07E-18  5.07E-10
 -1.9383E-01 -7.3531E-02  1.1071E-01  1.1071E-01  2.3768E-01
  prteigrs : nnsclo,ikpt=   30  155 max resid (incl. the buffer)=  5.06559E-10
 Non-SCF case, kpt  156 (  0.43243  0.43243  0.43243), residuals and eigenvalues=
  1.36E-18  1.26E-18  4.87E-18  6.64E-18  5.48E-11
 -1.9164E-01 -7.8975E-02  1.1014E-01  1.1014E-01  2.3675E-01
  prteigrs : nnsclo,ikpt=   30  156 max resid (incl. the buffer)=  5.47557E-11
 Non-SCF case, kpt  157 (  0.44595  0.44595  0.44595), residuals and eigenvalues=
  1.85E-18  1.13E-18  7.96E-18  5.62E-18  5.02E-11
 -1.8873E-01 -8.3369E-02  1.0969E-01  1.0969E-01  2.3631E-01
  prteigrs : nnsclo,ikpt=   30  157 max resid (incl. the buffer)=  5.02018E-11
 Non-SCF case, kpt  158 (  0.45946  0.45946  0.45946), residuals and eigenvalues=
  1.56E-18  1.02E-18  9.77E-18  4.94E-18  4.08E-11
 -1.8627E-01 -8.6978E-02  1.0934E-01  1.0934E-01  2.3598E-01
  prteigrs : nnsclo,ikpt=   30  158 max resid (incl. the buffer)=  4.07831E-11
 Non-SCF case, kpt  159 (  0.47297  0.47297  0.47297), residuals and eigenvalues=
  1.44E-18  9.31E-19  1.44E-18  4.43E-18  4.11E-11
 -1.8440E-01 -8.9677E-02  1.0909E-01  1.0909E-01  2.3574E-01
  prteigrs : nnsclo,ikpt=   30  159 max resid (incl. the buffer)=  4.10634E-11
 Non-SCF case, kpt  160 (  0.48649  0.48649  0.48649), residuals and eigenvalues=
  1.37E-18  8.77E-19  1.52E-18  4.11E-18  4.70E-11
 -1.8322E-01 -9.1352E-02  1.0894E-01  1.0894E-01  2.3559E-01
  prteigrs : nnsclo,ikpt=   30  160 max resid (incl. the buffer)=  4.70185E-11
 Non-SCF case, kpt  161 (  0.50000  0.50000  0.50000), residuals and eigenvalues=
  5.53E-18  7.21E-18  6.07E-18  3.16E-17  2.26E-10
 -1.8282E-01 -9.1921E-02  1.0889E-01  1.0889E-01  2.3554E-01
  prteigrs : nnsclo,ikpt=   30  161 max resid (incl. the buffer)=  2.25585E-10
 Non-SCF case, kpt  162 (  0.50481  0.49038  0.50481), residuals and eigenvalues=
  8.80E-18  8.03E-19  2.03E-18  2.64E-18  8.34E-11
 -1.8273E-01 -9.1866E-02  1.0819E-01  1.0873E-01  2.3618E-01
  prteigrs : nnsclo,ikpt=   30  162 max resid (incl. the buffer)=  8.34350E-11
 Non-SCF case, kpt  163 (  0.50962  0.48077  0.50962), residuals and eigenvalues=
  8.67E-18  9.92E-18  5.47E-18  5.69E-18  2.61E-10
 -1.8245E-01 -9.1703E-02  1.0614E-01  1.0825E-01  2.3802E-01
  prteigrs : nnsclo,ikpt=   30  163 max resid (incl. the buffer)=  2.61448E-10
 Non-SCF case, kpt  164 (  0.51442  0.47115  0.51442), residuals and eigenvalues=
  9.27E-18  9.99E-18  3.23E-18  8.08E-18  9.73E-10
 -1.8200E-01 -9.1433E-02  1.0287E-01  1.0746E-01  2.4083E-01
  prteigrs : nnsclo,ikpt=   30  164 max resid (incl. the buffer)=  9.73369E-10
 Non-SCF case, kpt  165 (  0.51923  0.46154  0.51923), residuals and eigenvalues=
  1.60E-18  9.83E-18  5.77E-18  2.25E-18  2.09E-09
 -1.8137E-01 -9.1060E-02  9.8571E-02  1.0639E-01  2.4423E-01
  prteigrs : nnsclo,ikpt=   30  165 max resid (incl. the buffer)=  2.08740E-09
 Non-SCF case, kpt  166 (  0.52404  0.45192  0.52404), residuals and eigenvalues=
  4.30E-18  1.41E-18  4.19E-18  3.48E-18  1.44E-09
 -1.7949E-01 -9.0475E-02  9.3613E-02  1.0510E-01  2.4779E-01
  prteigrs : nnsclo,ikpt=   30  166 max resid (incl. the buffer)=  1.44393E-09
 Non-SCF case, kpt  167 (  0.52885  0.44231  0.52885), residuals and eigenvalues=
  2.20E-18  8.09E-18  2.43E-18  8.22E-18  1.53E-09
 -1.7716E-01 -9.0250E-02  8.7879E-02  1.0366E-01  2.4923E-01
  prteigrs : nnsclo,ikpt=   30  167 max resid (incl. the buffer)=  1.52946E-09
 Non-SCF case, kpt  168 (  0.53365  0.43269  0.53365), residuals and eigenvalues=
  2.83E-18  5.26E-18  1.34E-18  6.07E-18  1.98E-09
 -1.7606E-01 -8.9613E-02  8.1636E-02  1.0189E-01  2.5074E-01
  prteigrs : nnsclo,ikpt=   30  168 max resid (incl. the buffer)=  1.97699E-09
 Non-SCF case, kpt  169 (  0.53846  0.42308  0.53846), residuals and eigenvalues=
  7.84E-18  1.75E-18  4.95E-18  3.72E-17  1.74E-08
 -1.7500E-01 -8.9386E-02  7.4924E-02  9.9936E-02  2.5039E-01
  prteigrs : nnsclo,ikpt=   30  169 max resid (incl. the buffer)=  1.73649E-08
 Non-SCF case, kpt  170 (  0.54327  0.41346  0.54327), residuals and eigenvalues=
  7.93E-18  8.12E-18  1.87E-18  1.80E-17  3.21E-09
 -1.7355E-01 -8.8633E-02  6.8116E-02  9.7872E-02  2.4947E-01
  prteigrs : nnsclo,ikpt=   30  170 max resid (incl. the buffer)=  3.20964E-09
 Non-SCF case, kpt  171 (  0.54808  0.40385  0.54808), residuals and eigenvalues=
  7.63E-18  6.06E-18  7.89E-19  7.23E-18  4.92E-10
 -1.7192E-01 -8.7838E-02  6.1200E-02  9.5711E-02  2.4772E-01
  prteigrs : nnsclo,ikpt=   30  171 max resid (incl. the buffer)=  4.91744E-10
 Non-SCF case, kpt  172 (  0.55288  0.39423  0.55288), residuals and eigenvalues=
  9.95E-18  3.46E-18  8.75E-18  5.68E-18  9.68E-11
 -1.6913E-01 -8.6965E-02  5.4386E-02  9.3484E-02  2.4544E-01
  prteigrs : nnsclo,ikpt=   30  172 max resid (incl. the buffer)=  9.67677E-11
 Non-SCF case, kpt  173 (  0.55769  0.38462  0.55769), residuals and eigenvalues=
  6.51E-18  2.24E-18  8.07E-18  4.71E-18  7.31E-12
 -1.6717E-01 -8.6151E-02  4.7504E-02  9.1210E-02  2.4284E-01
  prteigrs : nnsclo,ikpt=   30  173 max resid (incl. the buffer)=  7.31344E-12
 Non-SCF case, kpt  174 (  0.56250  0.37500  0.56250), residuals and eigenvalues=
  4.18E-18  1.53E-18  5.29E-18  9.05E-18  5.40E-13
 -1.6504E-01 -8.5372E-02  4.0752E-02  8.8918E-02  2.4008E-01
  prteigrs : nnsclo,ikpt=   30  174 max resid (incl. the buffer)=  5.39697E-13
 Non-SCF case, kpt  175 (  0.56731  0.36538  0.56731), residuals and eigenvalues=
  6.42E-18  1.53E-18  3.99E-18  6.29E-18  8.57E-13
 -1.6394E-01 -8.4753E-02  3.4128E-02  8.6629E-02  2.3698E-01
  prteigrs : nnsclo,ikpt=   30  175 max resid (incl. the buffer)=  8.57313E-13
 Non-SCF case, kpt  176 (  0.57212  0.35577  0.57212), residuals and eigenvalues=
  1.66E-18  1.09E-18  1.79E-18  4.09E-18  3.31E-13
 -1.6136E-01 -8.3636E-02  2.8140E-02  8.4371E-02  2.3525E-01
  prteigrs : nnsclo,ikpt=   30  176 max resid (incl. the buffer)=  3.30702E-13
 Non-SCF case, kpt  177 (  0.57692  0.34615  0.57692), residuals and eigenvalues=
  2.24E-18  1.07E-18  1.18E-18  2.41E-18  7.38E-14
 -1.5879E-01 -8.3210E-02  2.2199E-02  8.2147E-02  2.3240E-01
  prteigrs : nnsclo,ikpt=   30  177 max resid (incl. the buffer)=  7.37876E-14
 Non-SCF case, kpt  178 (  0.58173  0.33654  0.58173), residuals and eigenvalues=
  2.79E-18  1.13E-18  8.44E-18  9.27E-18  1.90E-14
 -1.5608E-01 -8.3018E-02  1.6703E-02  7.9978E-02  2.2962E-01
  prteigrs : nnsclo,ikpt=   30  178 max resid (incl. the buffer)=  1.89980E-14
 Non-SCF case, kpt  179 (  0.58654  0.32692  0.58654), residuals and eigenvalues=
  4.63E-18  5.31E-18  4.72E-18  4.03E-18  5.50E-15
 -1.5303E-01 -8.2583E-02  1.1917E-02  7.7897E-02  2.2709E-01
  prteigrs : nnsclo,ikpt=   30  179 max resid (incl. the buffer)=  5.50229E-15
 Non-SCF case, kpt  180 (  0.59135  0.31731  0.59135), residuals and eigenvalues=
  4.85E-18  7.13E-18  9.06E-18  2.41E-18  4.56E-15
 -1.4880E-01 -8.2878E-02  7.6420E-03  7.5896E-02  2.2454E-01
  prteigrs : nnsclo,ikpt=   30  180 max resid (incl. the buffer)=  4.55656E-15
 Non-SCF case, kpt  181 (  0.59615  0.30769  0.59615), residuals and eigenvalues=
  4.90E-18  6.73E-18  7.44E-18  1.65E-18  6.77E-15
 -1.4571E-01 -8.3766E-02  3.9606E-03  7.3966E-02  2.2211E-01
  prteigrs : nnsclo,ikpt=   30  181 max resid (incl. the buffer)=  6.77251E-15
 Non-SCF case, kpt  182 (  0.60096  0.29808  0.60096), residuals and eigenvalues=
  4.97E-18  6.42E-18  6.62E-18  2.20E-18  7.54E-15
 -1.4254E-01 -8.5114E-02  1.0553E-03  7.2137E-02  2.1984E-01
  prteigrs : nnsclo,ikpt=   30  182 max resid (incl. the buffer)=  7.54351E-15
 Non-SCF case, kpt  183 (  0.60577  0.28846  0.60577), residuals and eigenvalues=
  8.92E-18  1.45E-18  2.74E-18  6.03E-18  1.67E-14
 -1.3976E-01 -8.6948E-02 -1.0353E-03  7.0416E-02  2.1772E-01
  prteigrs : nnsclo,ikpt=   30  183 max resid (incl. the buffer)=  1.67410E-14
 Non-SCF case, kpt  184 (  0.61058  0.27885  0.61058), residuals and eigenvalues=
  8.66E-18  8.57E-18  2.06E-18  1.89E-18  5.56E-14
 -1.3660E-01 -8.9124E-02 -2.3083E-03  6.8811E-02  2.1576E-01
  prteigrs : nnsclo,ikpt=   30  184 max resid (incl. the buffer)=  5.55994E-14
 Non-SCF case, kpt  185 (  0.61538  0.26923  0.61538), residuals and eigenvalues=
  6.78E-18  5.87E-18  1.43E-18  4.27E-18  1.81E-13
 -1.3359E-01 -9.1532E-02 -2.7963E-03  6.7326E-02  2.1398E-01
  prteigrs : nnsclo,ikpt=   30  185 max resid (incl. the buffer)=  1.80933E-13
 Non-SCF case, kpt  186 (  0.62019  0.25962  0.62019), residuals and eigenvalues=
  4.68E-18  7.10E-18  1.06E-18  6.64E-18  2.65E-13
 -1.3093E-01 -9.3919E-02 -2.5591E-03  6.5969E-02  2.1238E-01
  prteigrs : nnsclo,ikpt=   30  186 max resid (incl. the buffer)=  2.64747E-13
 Non-SCF case, kpt  187 (  0.62500  0.25000  0.62500), residuals and eigenvalues=
  5.16E-18  9.32E-18  7.21E-18  7.92E-18  2.49E-13
 -1.2891E-01 -9.5898E-02 -1.6727E-03  6.4742E-02  2.1095E-01
  prteigrs : nnsclo,ikpt=   30  187 max resid (incl. the buffer)=  2.48681E-13
 Non-SCF case, kpt  188 (  0.61667  0.25000  0.63333), residuals and eigenvalues=
  4.26E-18  9.11E-18  8.16E-18  1.01E-18  6.34E-13
 -1.2882E-01 -9.5926E-02 -1.5986E-03  6.4196E-02  2.1178E-01
  prteigrs : nnsclo,ikpt=   30  188 max resid (incl. the buffer)=  6.33756E-13
 Non-SCF case, kpt  189 (  0.60833  0.25000  0.64167), residuals and eigenvalues=
  1.57E-18  4.25E-18  5.30E-18  1.01E-17  9.82E-13
 -1.2853E-01 -9.6010E-02 -1.3763E-03  6.2600E-02  2.1421E-01
  prteigrs : nnsclo,ikpt=   30  189 max resid (incl. the buffer)=  9.81886E-13
 Non-SCF case, kpt  190 (  0.60000  0.25000  0.65000), residuals and eigenvalues=
  2.21E-18  4.52E-18  3.82E-18  2.17E-18  5.51E-13
 -1.3039E-01 -9.6611E-02 -1.0149E-03  5.9981E-02  2.1814E-01
  prteigrs : nnsclo,ikpt=   30  190 max resid (incl. the buffer)=  5.51021E-13
 Non-SCF case, kpt  191 (  0.59167  0.25000  0.65833), residuals and eigenvalues=
  2.55E-18  5.88E-18  4.51E-18  2.40E-18  1.30E-12
 -1.2977E-01 -9.6834E-02 -4.9784E-04  5.6686E-02  2.2341E-01
  prteigrs : nnsclo,ikpt=   30  191 max resid (incl. the buffer)=  1.30416E-12
 Non-SCF case, kpt  192 (  0.58333  0.25000  0.66667), residuals and eigenvalues=
  2.98E-18  7.67E-18  5.77E-18  2.47E-18  3.67E-12
 -1.2897E-01 -9.7145E-02  1.6549E-04  5.2811E-02  2.2983E-01
  prteigrs : nnsclo,ikpt=   30  192 max resid (incl. the buffer)=  3.67452E-12
 Non-SCF case, kpt  193 (  0.57500  0.25000  0.67500), residuals and eigenvalues=
  3.48E-18  9.89E-18  7.89E-18  2.53E-18  1.18E-11
 -1.2798E-01 -9.7562E-02  9.7390E-04  4.8543E-02  2.3725E-01
  prteigrs : nnsclo,ikpt=   30  193 max resid (incl. the buffer)=  1.18480E-11
 Non-SCF case, kpt  194 (  0.56667  0.25000  0.68333), residuals and eigenvalues=
  4.02E-18  9.68E-19  1.15E-18  2.67E-18  4.19E-11
 -1.2680E-01 -9.8107E-02  1.9259E-03  4.4051E-02  2.4549E-01
  prteigrs : nnsclo,ikpt=   30  194 max resid (incl. the buffer)=  4.18607E-11
 Non-SCF case, kpt  195 (  0.55833  0.25000  0.69167), residuals and eigenvalues=
  4.51E-18  4.02E-18  2.31E-18  7.37E-18  8.58E-10
 -1.2472E-01 -9.8321E-02  3.0456E-03  3.9504E-02  2.5454E-01
  prteigrs : nnsclo,ikpt=   30  195 max resid (incl. the buffer)=  8.57732E-10
 Non-SCF case, kpt  196 (  0.55000  0.25000  0.70000), residuals and eigenvalues=
  4.89E-18  4.17E-18  2.72E-18  6.09E-18  7.95E-09
 -1.2318E-01 -9.9210E-02  4.2785E-03  3.4994E-02  2.6407E-01
  prteigrs : nnsclo,ikpt=   30  196 max resid (incl. the buffer)=  7.95093E-09
 Non-SCF case, kpt  197 (  0.54167  0.25000  0.70833), residuals and eigenvalues=
  4.77E-18  3.63E-18  2.80E-18  4.20E-18  8.16E-08
 -1.2145E-01 -1.0031E-01  5.6487E-03  3.0658E-02  2.7405E-01
  prteigrs : nnsclo,ikpt=   30  197 max resid (incl. the buffer)=  8.16486E-08
 Non-SCF case, kpt  198 (  0.53333  0.25000  0.71667), residuals and eigenvalues=
  3.43E-18  2.51E-18  2.17E-18  2.09E-18  3.84E-07
 -1.1953E-01 -1.0166E-01  7.1533E-03  2.6592E-02  2.8435E-01
  prteigrs : nnsclo,ikpt=   30  198 max resid (incl. the buffer)=  3.83739E-07
 Non-SCF case, kpt  199 (  0.52500  0.25000  0.72500), residuals and eigenvalues=
  1.82E-18  9.94E-19  1.48E-18  1.52E-18  4.38E-07
 -1.1848E-01 -1.0372E-01  8.7771E-03  2.2879E-02  2.9443E-01
  prteigrs : nnsclo,ikpt=   30  199 max resid (incl. the buffer)=  4.38383E-07
 Non-SCF case, kpt  200 (  0.51667  0.25000  0.73333), residuals and eigenvalues=
  9.27E-18  5.84E-18  1.31E-18  2.13E-18  2.07E-04
 -1.1620E-01 -1.0624E-01  1.0540E-02  1.9583E-02  3.0491E-01
  prteigrs : nnsclo,ikpt=   30  200 max resid (incl. the buffer)=  2.07497E-04
 Non-SCF case, kpt  201 (  0.50833  0.25000  0.74167), residuals and eigenvalues=
  3.08E-18  2.24E-18  2.35E-18  4.35E-18  4.26E-05
 -1.1373E-01 -1.0850E-01  1.2427E-02  1.6755E-02  3.1366E-01
  prteigrs : nnsclo,ikpt=   30  201 max resid (incl. the buffer)=  4.25646E-05
 Non-SCF case, kpt  202 (  0.50000  0.25000  0.75000), residuals and eigenvalues=
  2.02E-18  7.57E-18  1.40E-18  3.37E-18  1.24E-09
 -1.1108E-01 -1.1108E-01  1.4432E-02  1.4432E-02  3.1862E-01
  prteigrs : nnsclo,ikpt=   30  202 max resid (incl. the buffer)=  1.24141E-09
 Non-SCF case, kpt  203 (  0.50000  0.25833  0.74167), residuals and eigenvalues=
  3.19E-18  3.71E-18  7.53E-19  4.03E-18  5.60E-05
 -1.1498E-01 -1.0724E-01  1.1684E-02  1.7503E-02  3.1603E-01
  prteigrs : nnsclo,ikpt=   30  203 max resid (incl. the buffer)=  5.60271E-05
 Non-SCF case, kpt  204 (  0.50000  0.26667  0.73333), residuals and eigenvalues=
  5.19E-18  7.44E-18  2.06E-18  8.09E-18  4.52E-05
 -1.1891E-01 -1.0350E-01  9.3090E-03  2.0852E-02  3.1174E-01
  prteigrs : nnsclo,ikpt=   30  204 max resid (incl. the buffer)=  4.51765E-05
 Non-SCF case, kpt  205 (  0.50000  0.27500  0.72500), residuals and eigenvalues=
  6.61E-18  8.14E-19  5.01E-18  1.35E-18  2.11E-05
 -1.2282E-01 -9.9919E-02  7.3624E-03  2.4439E-02  3.0778E-01
  prteigrs : nnsclo,ikpt=   30  205 max resid (incl. the buffer)=  2.10964E-05
 Non-SCF case, kpt  206 (  0.50000  0.28333  0.71667), residuals and eigenvalues=
  1.29E-18  6.04E-18  9.37E-19  5.49E-18  2.36E-06
 -1.2594E-01 -9.6428E-02  5.9071E-03  2.8228E-02  3.0405E-01
  prteigrs : nnsclo,ikpt=   30  206 max resid (incl. the buffer)=  2.35987E-06
 Non-SCF case, kpt  207 (  0.50000  0.29167  0.70833), residuals and eigenvalues=
  1.17E-18  6.54E-18  8.53E-19  7.53E-18  1.40E-06
 -1.2976E-01 -9.3335E-02  5.0004E-03  3.2187E-02  3.0039E-01
  prteigrs : nnsclo,ikpt=   30  207 max resid (incl. the buffer)=  1.40256E-06
 Non-SCF case, kpt  208 (  0.50000  0.30000  0.70000), residuals and eigenvalues=
  1.05E-18  6.84E-18  8.08E-19  2.00E-18  1.15E-06
 -1.3351E-01 -9.0575E-02  4.7069E-03  3.6285E-02  2.9691E-01
  prteigrs : nnsclo,ikpt=   30  208 max resid (incl. the buffer)=  1.14867E-06
 Non-SCF case, kpt  209 (  0.50000  0.30833  0.69167), residuals and eigenvalues=
  9.84E-19  7.00E-18  8.47E-19  3.07E-18  1.02E-06
 -1.3716E-01 -8.8200E-02  5.0799E-03  4.0494E-02  2.9364E-01
  prteigrs : nnsclo,ikpt=   30  209 max resid (incl. the buffer)=  1.01548E-06
 Non-SCF case, kpt  210 (  0.50000  0.31667  0.68333), residuals and eigenvalues=
  9.93E-19  7.05E-18  9.87E-19  4.89E-18  7.54E-07
 -1.4071E-01 -8.6249E-02  6.1579E-03  4.4787E-02  2.9061E-01
  prteigrs : nnsclo,ikpt=   30  210 max resid (incl. the buffer)=  7.54371E-07
 Non-SCF case, kpt  211 (  0.50000  0.32500  0.67500), residuals and eigenvalues=
  1.06E-18  7.02E-18  1.23E-18  8.54E-18  5.82E-07
 -1.4414E-01 -8.4740E-02  7.9587E-03  4.9137E-02  2.8784E-01
  prteigrs : nnsclo,ikpt=   30  211 max resid (incl. the buffer)=  5.81552E-07
 Non-SCF case, kpt  212 (  0.50000  0.33333  0.66667), residuals and eigenvalues=
  9.96E-18  5.55E-18  9.14E-18  3.05E-18  1.23E-06
 -1.4765E-01 -8.4387E-02  1.0233E-02  5.3505E-02  2.8441E-01
  prteigrs : nnsclo,ikpt=   30  212 max resid (incl. the buffer)=  1.22668E-06
 Non-SCF case, kpt  213 (  0.50000  0.34167  0.65833), residuals and eigenvalues=
  1.37E-18  2.95E-18  3.66E-18  6.22E-18  6.12E-08
 -1.5062E-01 -8.2929E-02  1.3549E-02  5.7895E-02  2.8215E-01
  prteigrs : nnsclo,ikpt=   30  213 max resid (incl. the buffer)=  6.11521E-08
 Non-SCF case, kpt  214 (  0.50000  0.35000  0.65000), residuals and eigenvalues=
  1.52E-18  2.78E-18  6.78E-18  9.10E-18  5.08E-08
 -1.5365E-01 -8.2655E-02  1.7374E-02  6.2258E-02  2.8018E-01
  prteigrs : nnsclo,ikpt=   30  214 max resid (incl. the buffer)=  5.07916E-08
 Non-SCF case, kpt  215 (  0.50000  0.35833  0.64167), residuals and eigenvalues=
  1.80E-18  2.58E-18  1.98E-18  2.31E-18  4.25E-07
 -1.5652E-01 -8.2697E-02  2.1775E-02  6.6571E-02  2.7851E-01
  prteigrs : nnsclo,ikpt=   30  215 max resid (incl. the buffer)=  4.24824E-07
 Non-SCF case, kpt  216 (  0.50000  0.36667  0.63333), residuals and eigenvalues=
  4.75E-18  7.46E-18  1.94E-18  8.99E-18  2.76E-05
 -1.5686E-01 -8.2816E-02  2.6817E-02  7.0848E-02  2.7792E-01
  prteigrs : nnsclo,ikpt=   30  216 max resid (incl. the buffer)=  2.75787E-05
 Non-SCF case, kpt  217 (  0.50000  0.37500  0.62500), residuals and eigenvalues=
  3.41E-18  9.41E-18  3.20E-18  1.12E-18  4.95E-05
 -1.5947E-01 -8.3326E-02  3.2168E-02  7.4980E-02  2.7776E-01
  prteigrs : nnsclo,ikpt=   30  217 max resid (incl. the buffer)=  4.94844E-05
 Non-SCF case, kpt  218 (  0.50000  0.38333  0.61667), residuals and eigenvalues=
  3.31E-18  9.34E-18  5.76E-18  1.58E-18  1.40E-05
 -1.6192E-01 -8.3981E-02  3.7888E-02  7.8980E-02  2.7628E-01
  prteigrs : nnsclo,ikpt=   30  218 max resid (incl. the buffer)=  1.39861E-05
 Non-SCF case, kpt  219 (  0.50000  0.39167  0.60833), residuals and eigenvalues=
  1.67E-18  4.74E-18  1.48E-18  3.49E-18  1.11E-05
 -1.6439E-01 -8.5210E-02  4.3577E-02  8.2817E-02  2.7347E-01
  prteigrs : nnsclo,ikpt=   30  219 max resid (incl. the buffer)=  1.10875E-05
 Non-SCF case, kpt  220 (  0.50000  0.40000  0.60000), residuals and eigenvalues=
  5.85E-18  4.26E-18  6.87E-19  4.38E-18  5.81E-05
 -1.6764E-01 -8.6122E-02  4.9816E-02  8.6376E-02  2.7202E-01
  prteigrs : nnsclo,ikpt=   30  220 max resid (incl. the buffer)=  5.80519E-05
 Non-SCF case, kpt  221 (  0.50000  0.40833  0.59167), residuals and eigenvalues=
  5.99E-18  5.20E-18  1.34E-18  6.84E-18  6.22E-05
 -1.6960E-01 -8.6952E-02  5.6231E-02  8.9814E-02  2.6831E-01
  prteigrs : nnsclo,ikpt=   30  221 max resid (incl. the buffer)=  6.22347E-05
 Non-SCF case, kpt  222 (  0.50000  0.41667  0.58333), residuals and eigenvalues=
  5.21E-18  4.63E-18  2.96E-18  8.73E-18  2.10E-05
 -1.7140E-01 -8.7781E-02  6.2752E-02  9.3018E-02  2.6439E-01
  prteigrs : nnsclo,ikpt=   30  222 max resid (incl. the buffer)=  2.10431E-05
 Non-SCF case, kpt  223 (  0.50000  0.42500  0.57500), residuals and eigenvalues=
  1.19E-18  9.76E-18  1.55E-18  2.24E-18  5.16E-06
 -1.7302E-01 -8.8585E-02  6.9306E-02  9.5968E-02  2.6100E-01
  prteigrs : nnsclo,ikpt=   30  223 max resid (incl. the buffer)=  5.16175E-06
 Non-SCF case, kpt  224 (  0.50000  0.43333  0.56667), residuals and eigenvalues=
  2.05E-18  1.23E-18  2.94E-18  7.69E-18  1.23E-06
 -1.7424E-01 -8.8868E-02  7.5928E-02  9.8709E-02  2.5854E-01
  prteigrs : nnsclo,ikpt=   30  224 max resid (incl. the buffer)=  1.22765E-06
 Non-SCF case, kpt  225 (  0.50000  0.44167  0.55833), residuals and eigenvalues=
  1.45E-18  1.31E-18  4.74E-18  3.48E-18  3.15E-07
 -1.7552E-01 -8.9580E-02  8.2262E-02  1.0109E-01  2.5499E-01
  prteigrs : nnsclo,ikpt=   30  225 max resid (incl. the buffer)=  3.14889E-07
 Non-SCF case, kpt  226 (  0.50000  0.45000  0.55000), residuals and eigenvalues=
  5.50E-18  1.20E-18  2.48E-18  4.92E-18  5.61E-08
 -1.7874E-01 -9.0381E-02  8.7999E-02  1.0317E-01  2.5089E-01
  prteigrs : nnsclo,ikpt=   30  226 max resid (incl. the buffer)=  5.60862E-08
 Non-SCF case, kpt  227 (  0.50000  0.45833  0.54167), residuals and eigenvalues=
  5.57E-18  5.89E-18  2.67E-18  9.03E-18  2.87E-09
 -1.7949E-01 -9.0476E-02  9.3673E-02  1.0495E-01  2.4837E-01
  prteigrs : nnsclo,ikpt=   30  227 max resid (incl. the buffer)=  2.87146E-09
 Non-SCF case, kpt  228 (  0.50000  0.46667  0.53333), residuals and eigenvalues=
  8.14E-18  9.67E-19  3.31E-18  8.65E-18  3.13E-09
 -1.8137E-01 -9.1058E-02  9.8630E-02  1.0631E-01  2.4439E-01
  prteigrs : nnsclo,ikpt=   30  228 max resid (incl. the buffer)=  3.12974E-09
 Non-SCF case, kpt  229 (  0.50000  0.47500  0.52500), residuals and eigenvalues=
  7.93E-18  9.40E-19  7.66E-18  7.71E-18  7.06E-10
 -1.8200E-01 -9.1432E-02  1.0288E-01  1.0743E-01  2.4086E-01
  prteigrs : nnsclo,ikpt=   30  229 max resid (incl. the buffer)=  7.06034E-10
 Non-SCF case, kpt  230 (  0.50000  0.48333  0.51667), residuals and eigenvalues=
  8.06E-18  9.08E-19  1.83E-18  3.26E-18  2.16E-10
 -1.8245E-01 -9.1703E-02  1.0614E-01  1.0824E-01  2.3802E-01
  prteigrs : nnsclo,ikpt=   30  230 max resid (incl. the buffer)=  2.16235E-10
 Non-SCF case, kpt  231 (  0.50000  0.49167  0.50833), residuals and eigenvalues=
  8.55E-18  8.80E-19  5.00E-18  3.25E-18  9.40E-11
 -1.8273E-01 -9.1866E-02  1.0819E-01  1.0873E-01  2.3618E-01
  prteigrs : nnsclo,ikpt=   30  231 max resid (incl. the buffer)=  9.40333E-11
 Non-SCF case, kpt  232 (  0.50000  0.50000  0.50000), residuals and eigenvalues=
  5.53E-18  7.21E-18  6.07E-18  3.16E-17  2.26E-10
 -1.8282E-01 -9.1921E-02  1.0889E-01  1.0889E-01  2.3554E-01
  prteigrs : nnsclo,ikpt=   30  232 max resid (incl. the buffer)=  2.25585E-10
 Non-SCF case, kpt  233 (  0.49519  0.49519  0.50962), residuals and eigenvalues=
  8.64E-18  9.59E-19  4.85E-18  4.62E-18  1.25E-10
 -1.8273E-01 -9.1866E-02  1.0819E-01  1.0873E-01  2.3618E-01
  prteigrs : nnsclo,ikpt=   30  233 max resid (incl. the buffer)=  1.24663E-10
 Non-SCF case, kpt  234 (  0.49038  0.49038  0.51923), residuals and eigenvalues=
  8.14E-18  1.03E-18  2.25E-18  5.81E-18  3.47E-10
 -1.8245E-01 -9.1703E-02  1.0614E-01  1.0825E-01  2.3802E-01
  prteigrs : nnsclo,ikpt=   30  234 max resid (incl. the buffer)=  3.46622E-10
 Non-SCF case, kpt  235 (  0.48558  0.48558  0.52885), residuals and eigenvalues=
  7.96E-18  1.04E-18  1.33E-18  3.95E-18  9.65E-10
 -1.8200E-01 -9.1433E-02  1.0287E-01  1.0746E-01  2.4083E-01
  prteigrs : nnsclo,ikpt=   30  235 max resid (incl. the buffer)=  9.65415E-10
 Non-SCF case, kpt  236 (  0.48077  0.48077  0.53846), residuals and eigenvalues=
  8.25E-18  9.59E-19  8.20E-18  7.43E-18  3.70E-09
 -1.8137E-01 -9.1060E-02  9.8571E-02  1.0639E-01  2.4423E-01
  prteigrs : nnsclo,ikpt=   30  236 max resid (incl. the buffer)=  3.70188E-09
 Non-SCF case, kpt  237 (  0.47596  0.47596  0.54808), residuals and eigenvalues=
  1.97E-18  9.87E-18  3.95E-18  5.00E-18  1.25E-09
 -1.7949E-01 -9.0475E-02  9.3613E-02  1.0510E-01  2.4779E-01
  prteigrs : nnsclo,ikpt=   30  237 max resid (incl. the buffer)=  1.24705E-09
 Non-SCF case, kpt  238 (  0.47115  0.47115  0.55769), residuals and eigenvalues=
  1.35E-18  2.28E-18  5.03E-18  2.17E-18  3.18E-08
 -1.7716E-01 -9.0250E-02  8.7879E-02  1.0366E-01  2.4923E-01
[...]
  -0.13880   -0.08678    0.00533    0.04304    0.28670
 kpt# 271, nband=  5, wtk=  1.00000, kpt=  0.5000  0.3125  0.6875 (reduced coord)
  -0.13895   -0.08717    0.00553    0.04263    0.29210
 kpt# 272, nband=  5, wtk=  1.00000, kpt=  0.5096  0.3077  0.6827 (reduced coord)
  -0.13880   -0.08678    0.00533    0.04304    0.28670
 kpt# 273, nband=  5, wtk=  1.00000, kpt=  0.5192  0.3029  0.6779 (reduced coord)
  -0.13862   -0.08700    0.00469    0.04421    0.27779
 kpt# 274, nband=  5, wtk=  1.00000, kpt=  0.5288  0.2981  0.6731 (reduced coord)
  -0.13846   -0.08776    0.00368    0.04602    0.26853
 kpt# 275, nband=  5, wtk=  1.00000, kpt=  0.5385  0.2933  0.6683 (reduced coord)
  -0.13753   -0.08822    0.00259    0.04830    0.25962
 kpt# 276, nband=  5, wtk=  1.00000, kpt=  0.5481  0.2885  0.6635 (reduced coord)
  -0.13752   -0.08896    0.00142    0.05087    0.25108
 kpt# 277, nband=  5, wtk=  1.00000, kpt=  0.5577  0.2837  0.6587 (reduced coord)
  -0.13717   -0.08946    0.00034    0.05361    0.24321
 kpt# 278, nband=  5, wtk=  1.00000, kpt=  0.5673  0.2788  0.6538 (reduced coord)
  -0.13644   -0.09034   -0.00064    0.05634    0.23584
 kpt# 279, nband=  5, wtk=  1.00000, kpt=  0.5769  0.2740  0.6490 (reduced coord)
  -0.13562   -0.09131   -0.00142    0.05891    0.22919
 kpt# 280, nband=  5, wtk=  1.00000, kpt=  0.5865  0.2692  0.6442 (reduced coord)
  -0.13474   -0.09235   -0.00199    0.06118    0.22340
 kpt# 281, nband=  5, wtk=  1.00000, kpt=  0.5962  0.2644  0.6394 (reduced coord)
  -0.13261   -0.09326   -0.00229    0.06306    0.21857
 kpt# 282, nband=  5, wtk=  1.00000, kpt=  0.6058  0.2596  0.6346 (reduced coord)
  -0.13064   -0.09400   -0.00234    0.06436    0.21482
 kpt# 283, nband=  5, wtk=  1.00000, kpt=  0.6154  0.2548  0.6298 (reduced coord)
  -0.12974   -0.09501   -0.00214    0.06493    0.21226
 kpt# 284, nband=  5, wtk=  1.00000, kpt=  0.6250  0.2500  0.6250 (reduced coord)
  -0.12891   -0.09590   -0.00167    0.06474    0.21095
 kpt# 285, nband=  5, wtk=  1.00000, kpt=  0.6167  0.2333  0.6167 (reduced coord)
  -0.12639   -0.09860    0.00065    0.06279    0.20871
 kpt# 286, nband=  5, wtk=  1.00000, kpt=  0.6083  0.2167  0.6083 (reduced coord)
  -0.12420   -0.10111    0.00348    0.06096    0.20660
 kpt# 287, nband=  5, wtk=  1.00000, kpt=  0.6000  0.2000  0.6000 (reduced coord)
  -0.12232   -0.10343    0.00680    0.05925    0.20465
 kpt# 288, nband=  5, wtk=  1.00000, kpt=  0.5917  0.1833  0.5917 (reduced coord)
  -0.12073   -0.10556    0.01055    0.05767    0.20284
 kpt# 289, nband=  5, wtk=  1.00000, kpt=  0.5833  0.1667  0.5833 (reduced coord)
  -0.11941   -0.10750    0.01465    0.05622    0.20118
 kpt# 290, nband=  5, wtk=  1.00000, kpt=  0.5750  0.1500  0.5750 (reduced coord)
  -0.11834   -0.10925    0.01904    0.05489    0.19968
 kpt# 291, nband=  5, wtk=  1.00000, kpt=  0.5667  0.1333  0.5667 (reduced coord)
  -0.11896   -0.11176    0.02357    0.05358    0.19833
 kpt# 292, nband=  5, wtk=  1.00000, kpt=  0.5583  0.1167  0.5583 (reduced coord)
  -0.11828   -0.11313    0.02819    0.05253    0.19714
 kpt# 293, nband=  5, wtk=  1.00000, kpt=  0.5500  0.1000  0.5500 (reduced coord)
  -0.11775   -0.11432    0.03275    0.05162    0.19612
 kpt# 294, nband=  5, wtk=  1.00000, kpt=  0.5417  0.0833  0.5417 (reduced coord)
  -0.11734   -0.11531    0.03708    0.05084    0.19525
 kpt# 295, nband=  5, wtk=  1.00000, kpt=  0.5333  0.0667  0.5333 (reduced coord)
  -0.11703   -0.11611    0.04102    0.05020    0.19457
 kpt# 296, nband=  5, wtk=  1.00000, kpt=  0.5250  0.0500  0.5250 (reduced coord)
  -0.11816   -0.11778    0.04429    0.04970    0.19342
 kpt# 297, nband=  5, wtk=  1.00000, kpt=  0.5167  0.0333  0.5167 (reduced coord)
  -0.11860   -0.11764    0.04686    0.04934    0.19306
 kpt# 298, nband=  5, wtk=  1.00000, kpt=  0.5083  0.0167  0.5083 (reduced coord)
  -0.11756   -0.11744    0.04850    0.04913    0.19385
 kpt# 299, nband=  5, wtk=  1.00000, kpt=  0.5000  0.0000  0.5000 (reduced coord)
  -0.11754   -0.11753    0.04906    0.04906    0.19374

== END DATASET(S) ==============================================================
================================================================================
  
 -outvars: echo values of variables after computation  --------
            acell      1.0000000000E+00  1.0000000000E+00  1.0000000000E+00 Bohr
              amu      2.80855000E+01
      chksymbreak           0
             ecut      4.00000000E+00 Hartree
-          fftalg         312
           irdden           1
             iscf          -2
           istwfk        2    0    0    0    0    0    0    0    0    0
                         0    0    0    0    0    0    0    0    0    0
                         0    0    0    0    0    0    0    0    0    0
                         0    0    0    0    0    0    0    0    0    0
                         0    0    5    0    0    0    0    0    0    0
                       outvar_i_n : Printing only first  50 k-points.
              ixc          11
              kpt      0.00000000E+00  0.00000000E+00  0.00000000E+00
                       1.19047619E-02  0.00000000E+00  1.19047619E-02
                       2.38095238E-02  0.00000000E+00  2.38095238E-02
                       3.57142857E-02  0.00000000E+00  3.57142857E-02
                       4.76190476E-02  0.00000000E+00  4.76190476E-02
                       5.95238095E-02  0.00000000E+00  5.95238095E-02
                       7.14285714E-02  0.00000000E+00  7.14285714E-02
                       8.33333333E-02  0.00000000E+00  8.33333333E-02
                       9.52380952E-02  0.00000000E+00  9.52380952E-02
                       1.07142857E-01  0.00000000E+00  1.07142857E-01
                       1.19047619E-01  0.00000000E+00  1.19047619E-01
                       1.30952381E-01  0.00000000E+00  1.30952381E-01
                       1.42857143E-01  0.00000000E+00  1.42857143E-01
                       1.54761905E-01  0.00000000E+00  1.54761905E-01
                       1.66666667E-01  0.00000000E+00  1.66666667E-01
                       1.78571429E-01  0.00000000E+00  1.78571429E-01
                       1.90476190E-01  0.00000000E+00  1.90476190E-01
                       2.02380952E-01  0.00000000E+00  2.02380952E-01
                       2.14285714E-01  0.00000000E+00  2.14285714E-01
                       2.26190476E-01  0.00000000E+00  2.26190476E-01
                       2.38095238E-01  0.00000000E+00  2.38095238E-01
                       2.50000000E-01  0.00000000E+00  2.50000000E-01
                       2.61904762E-01  0.00000000E+00  2.61904762E-01
                       2.73809524E-01  0.00000000E+00  2.73809524E-01
                       2.85714286E-01  0.00000000E+00  2.85714286E-01
                       2.97619048E-01  0.00000000E+00  2.97619048E-01
                       3.09523810E-01  0.00000000E+00  3.09523810E-01
                       3.21428571E-01  0.00000000E+00  3.21428571E-01
                       3.33333333E-01  0.00000000E+00  3.33333333E-01
                       3.45238095E-01  0.00000000E+00  3.45238095E-01
                       3.57142857E-01  0.00000000E+00  3.57142857E-01
                       3.69047619E-01  0.00000000E+00  3.69047619E-01
                       3.80952381E-01  0.00000000E+00  3.80952381E-01
                       3.92857143E-01  0.00000000E+00  3.92857143E-01
                       4.04761905E-01  0.00000000E+00  4.04761905E-01
                       4.16666667E-01  0.00000000E+00  4.16666667E-01
                       4.28571429E-01  0.00000000E+00  4.28571429E-01
                       4.40476190E-01  0.00000000E+00  4.40476190E-01
                       4.52380952E-01  0.00000000E+00  4.52380952E-01
                       4.64285714E-01  0.00000000E+00  4.64285714E-01
                       4.76190476E-01  0.00000000E+00  4.76190476E-01
                       4.88095238E-01  0.00000000E+00  4.88095238E-01
                       5.00000000E-01  0.00000000E+00  5.00000000E-01
                       5.00000000E-01  1.19047619E-02  5.11904762E-01
                       5.00000000E-01  2.38095238E-02  5.23809524E-01
                       5.00000000E-01  3.57142857E-02  5.35714286E-01
                       5.00000000E-01  4.76190476E-02  5.47619048E-01
                       5.00000000E-01  5.95238095E-02  5.59523810E-01
                       5.00000000E-01  7.14285714E-02  5.71428571E-01
                       5.00000000E-01  8.33333333E-02  5.83333333E-01
                       outvar_i_n : Printing only first  50 k-points.
           kptopt         -11
P           mkmem         299
            natom           2
            nband           5
           nbdbuf           2
           ndivsm          15
            ngfft          15      15      15
             nkpt         299
             nsym          48
           ntypat           1
           occopt           3
            rprim      6.3285005735E+00  0.0000000000E+00  3.6537615097E+00
                       2.1095001912E+00  5.9665675604E+00  3.6537615097E+00
                       0.0000000000E+00  0.0000000000E+00  7.3075230194E+00
           shiftk      5.00000000E-01  5.00000000E-01  5.00000000E-01
          spgroup         227
           symrel      1  0  0   0  1  0   0  0  1      -1  0  0   0 -1  0   0  0 -1
                       0 -1  1   0 -1  0   1 -1  0       0  1 -1   0  1  0  -1  1  0
                      -1  0  0  -1  0  1  -1  1  0       1  0  0   1  0 -1   1 -1  0
                       0  1 -1   1  0 -1   0  0 -1       0 -1  1  -1  0  1   0  0  1
                      -1  0  0  -1  1  0  -1  0  1       1  0  0   1 -1  0   1  0 -1
                       0 -1  1   1 -1  0   0 -1  0       0  1 -1  -1  1  0   0  1  0
                       1  0  0   0  0  1   0  1  0      -1  0  0   0  0 -1   0 -1  0
                       0  1 -1   0  0 -1   1  0 -1       0 -1  1   0  0  1  -1  0  1
                      -1  0  1  -1  1  0  -1  0  0       1  0 -1   1 -1  0   1  0  0
                       0 -1  0   1 -1  0   0 -1  1       0  1  0  -1  1  0   0  1 -1
                       1  0 -1   0  0 -1   0  1 -1      -1  0  1   0  0  1   0 -1  1
                       0  1  0   0  0  1   1  0  0       0 -1  0   0  0 -1  -1  0  0
                       1  0 -1   0  1 -1   0  0 -1      -1  0  1   0 -1  1   0  0  1
                       0 -1  0   0 -1  1   1 -1  0       0  1  0   0  1 -1  -1  1  0
                      -1  0  1  -1  0  0  -1  1  0       1  0 -1   1  0  0   1 -1  0
                       0  1  0   1  0  0   0  0  1       0 -1  0  -1  0  0   0  0 -1
                       0  0 -1   0  1 -1   1  0 -1       0  0  1   0 -1  1  -1  0  1
                       1 -1  0   0 -1  1   0 -1  0      -1  1  0   0  1 -1   0  1  0
                       0  0  1   1  0  0   0  1  0       0  0 -1  -1  0  0   0 -1  0
                      -1  1  0  -1  0  0  -1  0  1       1 -1  0   1  0  0   1  0 -1
                       0  0  1   0  1  0   1  0  0       0  0 -1   0 -1  0  -1  0  0
                       1 -1  0   0 -1  0   0 -1  1      -1  1  0   0  1  0   0  1 -1
                       0  0 -1   1  0 -1   0  1 -1       0  0  1  -1  0  1   0 -1  1
                      -1  1  0  -1  0  1  -1  0  0       1 -1  0   1  0 -1   1  0  0
            tnons      0.0000000  0.0000000  0.0000000     0.2500000  0.2500000  0.2500000
                      -0.0000000  0.0000000  0.0000000     0.2500000  0.2500000  0.2500000
                       0.0000000  0.0000000  0.0000000     0.2500000  0.2500000  0.2500000
                      -0.0000000  0.0000000  0.0000000     0.2500000  0.2500000  0.2500000
                       0.0000000  0.0000000  0.0000000     0.2500000  0.2500000  0.2500000
                      -0.0000000  0.0000000  0.0000000     0.2500000  0.2500000  0.2500000
                       0.0000000  0.0000000  0.0000000     0.2500000  0.2500000  0.2500000
                      -0.0000000  0.0000000  0.0000000     0.2500000  0.2500000  0.2500000
                       0.0000000  0.0000000  0.0000000     0.2500000  0.2500000  0.2500000
                      -0.0000000  0.0000000  0.0000000     0.2500000  0.2500000  0.2500000
                       0.0000000  0.0000000  0.0000000     0.2500000  0.2500000  0.2500000
                      -0.0000000  0.0000000  0.0000000     0.2500000  0.2500000  0.2500000
                       0.0000000  0.0000000  0.0000000     0.2500000  0.2500000  0.2500000
                      -0.0000000  0.0000000  0.0000000     0.2500000  0.2500000  0.2500000
                       0.0000000  0.0000000  0.0000000     0.2500000  0.2500000  0.2500000
                      -0.0000000  0.0000000  0.0000000     0.2500000  0.2500000  0.2500000
                      -0.0000000  0.0000000  0.0000000     0.2500000  0.2500000  0.2500000
                       0.0000000  0.0000000  0.0000000     0.2500000  0.2500000  0.2500000
                      -0.0000000  0.0000000  0.0000000     0.2500000  0.2500000  0.2500000
                       0.0000000  0.0000000  0.0000000     0.2500000  0.2500000  0.2500000
                      -0.0000000  0.0000000  0.0000000     0.2500000  0.2500000  0.2500000
                       0.0000000  0.0000000  0.0000000     0.2500000  0.2500000  0.2500000
                      -0.0000000  0.0000000  0.0000000     0.2500000  0.2500000  0.2500000
                       0.0000000  0.0000000  0.0000000     0.2500000  0.2500000  0.2500000
           tolwfr      1.00000000E-17
           tsmear      3.67493222E-03 Hartree
            typat      1  1
                       outvars : Printing only first  50 k-points.
           xangst      1.1162994227E+00  7.8934289162E-01  1.9334873166E+00
                       0.0000000000E+00  0.0000000000E+00  0.0000000000E+00
            xcart      2.1095001912E+00  1.4916418901E+00  3.6537615097E+00
                       0.0000000000E+00  0.0000000000E+00  0.0000000000E+00
             xred      2.5000000000E-01  2.5000000000E-01  2.5000000000E-01
                       0.0000000000E+00  0.0000000000E+00  0.0000000000E+00
            znucl       14.00000

================================================================================


- Timing analysis has been suppressed with timopt=0



================================================================================

 Suggested references for the acknowledgment of ABINIT usage.

 The users of ABINIT have little formal obligations with respect to the ABINIT group
 (those specified in the GNU General Public License, http://www.gnu.org/copyleft/gpl.txt).
 However, it is common practice in the scientific literature,
 to acknowledge the efforts of people that have made the research possible.
 In this spirit, please find below suggested citations of work written by ABINIT developers,
 corresponding to implementations inside of ABINIT that you have used in the present run.
 Note also that it will be of great value to readers of publications presenting these results,
 to read papers enabling them to understand the theoretical formalism and details
 of the ABINIT implementation.
 For information on why they are suggested, see also https://docs.abinit.org/theory/acknowledgments.
-
- [1] The Abinit project: Impact, environment and recent developments.
- Computer Phys. Comm. 248, 107042 (2020).
- X.Gonze, B. Amadon, G. Antonius, F.Arnardi, L.Baguet, J.-M.Beuken,
- J.Bieder, F.Bottin, J.Bouchet, E.Bousquet, N.Brouwer, F.Bruneval,
- G.Brunin, T.Cavignac, J.-B. Charraud, Wei Chen, M.Cote, S.Cottenier,
- J.Denier, G.Geneste, Ph.Ghosez, M.Giantomassi, Y.Gillet, O.Gingras,
- D.R.Hamann, G.Hautier, Xu He, N.Helbig, N.Holzwarth, Y.Jia, F.Jollet,
- W.Lafargue-Dit-Hauret, K.Lejaeghere, M.A.L.Marques, A.Martin, C.Martins,
- H.P.C. Miranda, F.Naccarato, K. Persson, G.Petretto, V.Planes, Y.Pouillon,
- S.Prokhorenko, F.Ricci, G.-M.Rignanese, A.H.Romero, M.M.Schmitt, M.Torrent,
- M.J.van Setten, B.Van Troeye, M.J.Verstraete, G.Zerah and J.W.Zwanzig
- Comment: the fifth generic paper describing the ABINIT project.
- Note that a version of this paper, that is not formatted for Computer Phys. Comm. 
- is available at https://www.abinit.org/sites/default/files/ABINIT20.pdf .
- The licence allows the authors to put it on the Web.
- DOI and bibtex: see https://docs.abinit.org/theory/bibliography/#gonze2020
-
- [2] Optimized norm-conserving Vanderbilt pseudopotentials.
- D.R. Hamann, Phys. Rev. B 88, 085117 (2013).
- Comment: Some pseudopotential generated using the ONCVPSP code were used.
- DOI and bibtex: see https://docs.abinit.org/theory/bibliography/#hamann2013
-
- [3] ABINIT: Overview, and focus on selected capabilities
- J. Chem. Phys. 152, 124102 (2020).
- A. Romero, D.C. Allan, B. Amadon, G. Antonius, T. Applencourt, L.Baguet,
- J.Bieder, F.Bottin, J.Bouchet, E.Bousquet, F.Bruneval,
- G.Brunin, D.Caliste, M.Cote,
- J.Denier, C. Dreyer, Ph.Ghosez, M.Giantomassi, Y.Gillet, O.Gingras,
- D.R.Hamann, G.Hautier, F.Jollet, G. Jomard,
- A.Martin, 
- H.P.C. Miranda, F.Naccarato, G.Petretto, N.A. Pike, V.Planes,
- S.Prokhorenko, T. Rangel, F.Ricci, G.-M.Rignanese, M.Royo, M.Stengel, M.Torrent,
- M.J.van Setten, B.Van Troeye, M.J.Verstraete, J.Wiktor, J.W.Zwanziger, and X.Gonze.
- Comment: a global overview of ABINIT, with focus on selected capabilities .
- Note that a version of this paper, that is not formatted for J. Chem. Phys 
- is available at https://www.abinit.org/sites/default/files/ABINIT20_JPC.pdf .
- The licence allows the authors to put it on the Web.
- DOI and bibtex: see https://docs.abinit.org/theory/bibliography/#romero2020
-
- [4] Recent developments in the ABINIT software package.
- Computer Phys. Comm. 205, 106 (2016).
- X.Gonze, F.Jollet, F.Abreu Araujo, D.Adams, B.Amadon, T.Applencourt,
- C.Audouze, J.-M.Beuken, J.Bieder, A.Bokhanchuk, E.Bousquet, F.Bruneval
- D.Caliste, M.Cote, F.Dahm, F.Da Pieve, M.Delaveau, M.Di Gennaro,
- B.Dorado, C.Espejo, G.Geneste, L.Genovese, A.Gerossier, M.Giantomassi,
- Y.Gillet, D.R.Hamann, L.He, G.Jomard, J.Laflamme Janssen, S.Le Roux,
- A.Levitt, A.Lherbier, F.Liu, I.Lukacevic, A.Martin, C.Martins,
- M.J.T.Oliveira, S.Ponce, Y.Pouillon, T.Rangel, G.-M.Rignanese,
- A.H.Romero, B.Rousseau, O.Rubel, A.A.Shukri, M.Stankovski, M.Torrent,
- M.J.Van Setten, B.Van Troeye, M.J.Verstraete, D.Waroquier, J.Wiktor,
- B.Xu, A.Zhou, J.W.Zwanziger.
- Comment: the fourth generic paper describing the ABINIT project.
- Note that a version of this paper, that is not formatted for Computer Phys. Comm. 
- is available at https://www.abinit.org/sites/default/files/ABINIT16.pdf .
- The licence allows the authors to put it on the Web.
- DOI and bibtex: see https://docs.abinit.org/theory/bibliography/#gonze2016
-
- And optionally:
-
- [5] ABINIT: First-principles approach of materials and nanosystem properties.
- Computer Phys. Comm. 180, 2582-2615 (2009).
- X. Gonze, B. Amadon, P.-M. Anglade, J.-M. Beuken, F. Bottin, P. Boulanger, F. Bruneval,
- D. Caliste, R. Caracas, M. Cote, T. Deutsch, L. Genovese, Ph. Ghosez, M. Giantomassi
- S. Goedecker, D.R. Hamann, P. Hermet, F. Jollet, G. Jomard, S. Leroux, M. Mancini, S. Mazevet,
- M.J.T. Oliveira, G. Onida, Y. Pouillon, T. Rangel, G.-M. Rignanese, D. Sangalli, R. Shaltaf,
- M. Torrent, M.J. Verstraete, G. Zerah, J.W. Zwanziger
- Comment: the third generic paper describing the ABINIT project.
- Note that a version of this paper, that is not formatted for Computer Phys. Comm. 
- is available at https://www.abinit.org/sites/default/files/ABINIT_CPC_v10.pdf .
- The licence allows the authors to put it on the Web.
- DOI and bibtex: see https://docs.abinit.org/theory/bibliography/#gonze2009
-
- Proc.   0 individual time (sec): cpu=         15.9  wall=          4.0

================================================================================

 Calculation completed.
.Delivered   3 WARNINGs and   4 COMMENTs to log file.
+Overall time at end (sec) : cpu=         15.9  wall=          4.0
