LAMMPS (29 Aug 2024 - Development - patch_29Aug2024-704-g6d0e633edf)
# LAMMPS input generated from LammpsInputFile with pymatgen v2024.10.29

# Sample input script template for MD

# Initialization

# Stage 3
units metal
atom_style atomic
dimension 3
boundary p p p

# Atom definition

# md.restart
read_data system.data
Reading data file ...
  triclinic box = (0 0 0) to (3.938483 3.410826 3.215758) with tilt (1.969241 1.969241 1.136942)
WARNING: Triclinic box skew is large. LAMMPS will run inefficiently. (src/domain.cpp:221)
  1 by 1 by 1 MPI processor grid
  reading atoms ...
  2 atoms
  read_data CPU = 0.000 seconds

# Force field settings (consult official document for detailed formats)

# Stage 7
pair_style tersoff
pair_coeff * * /Users/virkaran/Code/Notebooks/lammps_flows/test_new/../pmg_data/Si.tersoff Si
Reading tersoff potential file /Users/virkaran/Code/Notebooks/lammps_flows/test_new/../pmg_data/Si.tersoff with DATE: 2007-10-25

# Create velocities
velocity all create 300 42 mom yes rot yes dist gaussian

# Stage 9
neigh_modify delay 5 every 1 check yes

# Ensemble constraints 1 all nve 2 all nose-hoover 300 300 0.1
fix 3 all npt temp 300 300 0.1 iso 0 0 0.1

# Output settings
thermo 100
dump d1 all custom 100 traj.dump id element x y z vx vy vz fx fy fz
dump_modify d1 sort id element Si

# Actions
timestep 0.001
run 10000

CITE-CITE-CITE-CITE-CITE-CITE-CITE-CITE-CITE-CITE-CITE-CITE-CITE

Your simulation uses code contributions which should be cited:

- Type Label Framework: https://doi.org/10.1021/acs.jpcb.3c08419

@Article{Gissinger24,
 author = {Jacob R. Gissinger, Ilia Nikiforov, Yaser Afshar, Brendon Waters, Moon-ki Choi, Daniel S. Karls, Alexander Stukowski, Wonpil Im, Hendrik Heinz, Axel Kohlmeyer, and Ellad B. Tadmor},
 title = {Type Label Framework for Bonded Force Fields in LAMMPS},
 journal = {J. Phys. Chem. B},
 year =    2024,
 volume =  128,
 number =  13,
 pages =   {3282--3297}
}

CITE-CITE-CITE-CITE-CITE-CITE-CITE-CITE-CITE-CITE-CITE-CITE-CITE

Neighbor list info ...
  update: every = 1 steps, delay = 5 steps, check = yes
  max neighbors/atom: 2000, page size: 100000
  master list distance cutoff = 5.2
  ghost atom cutoff = 5.2
  binsize = 2.6, bins = 4 2 2
  1 neighbor lists, perpetual/occasional/extra = 1 0 0
  (1) pair tersoff, perpetual
      attributes: full, newton on
      pair build: full/bin/atomonly
      stencil: full/bin/3d
      bin: standard
Per MPI rank memory allocation (min/avg/max) = 3.099 | 3.099 | 3.099 Mbytes
   Step          Temp          E_pair         E_mol          TotEng         Press          Volume    
         0   300           -9.1855988      0             -9.1468207     -60374.044      43.198821    
       100   45.571489     -9.1801549      0             -9.1742644     -38028.301      42.045253    
       200   355.38194     -9.1594349      0             -9.1134982     -8780.1513      40.8261      
       300   887.08571     -9.1583402      0             -9.0436753      3549.4873      40.380556    
       400   660.26027     -9.2566388      0             -9.1712935      19749.293      39.373766    
       500   289.43028     -9.2208625      0             -9.1834507      29431.181      39.067046    
       600   3.3321277     -9.1801345      0             -9.1797038      31349.784      39.083052    
       700   317.85429     -9.2221795      0             -9.1810936      537.80032      40.204496    
       800   873.17209     -9.2270713      0             -9.1142049     -34713.656      41.834833    
       900   812.61395     -9.204549       0             -9.0995104     -16314.145      41.062298    
      1000   182.31774     -9.2152896      0             -9.1917232     -8250.2305      40.578862    
      1100   72.352543     -9.2301998      0             -9.2208475     -2687.2578      40.276605    
      1200   286.00552     -9.251512       0             -9.2145429      14126.219      39.557084    
      1300   517.88678     -9.2217142      0             -9.1547721      41156.592      38.663861    
      1400   495.22518     -9.1147199      0             -9.0507071      41506.754      38.977234    
      1500   216.54688     -9.1358201      0             -9.1078292      14081.426      39.929586    
      1600   125.63365     -9.1599745      0             -9.1437351     -33781.03       41.933278    
      1700   303.50221     -9.1797502      0             -9.1405195     -57515.364      43.072707    
      1800   284.67871     -9.2383341      0             -9.2015365     -29797.11       41.470434    
      1900   94.296771     -9.2247121      0             -9.2125233     -21613.443      41.11834     
      2000   178.07296     -9.213703       0             -9.1906853     -9098.5449      40.62055     
      2100   959.50503     -9.2147518      0             -9.090726       32208.652      39.070481    
      2200   823.94382     -9.1549748      0             -9.0484717      83189.892      37.459505    
      2300   277.70315     -9.2278429      0             -9.1919469      24725.456      39.221441    
      2400   78.637755     -9.2176472      0             -9.2074824      8111.4558      39.87653     
      2500   164.36267     -9.2209145      0             -9.199669      -457.51862      40.228208    
      2600   566.44545     -9.2364371      0             -9.1632183     -18028.926      40.987093    
      2700   1287.7168     -9.1792666      0             -9.0128162     -43664.147      42.526204    
      2800   865.56394     -9.1333649      0             -9.021482      -45577.127      42.744598    
      2900   33.856111     -9.1897134      0             -9.1853371     -19655.452      41.149027    
      3000   164.72487     -9.2232952      0             -9.2020029      7382.8994      39.899145    
      3100   452.36873     -9.2583229      0             -9.1998496      9305.2518      39.748568    
      3200   336.13328     -9.2069014      0             -9.1634528      10362.454      39.857026    
      3300   15.330886     -9.0907355      0             -9.0887538      11026.96       40.182331    
      3400   258.44094     -9.1654814      0             -9.1320753      3494.878       40.266914    
      3500   315.3182      -9.2521049      0             -9.2113468     -21417.102      41.044378    
      3600   166.37699     -9.2145094      0             -9.1930035     -41325.444      42.089455    
      3700   5.1042335     -9.1663795      0             -9.1657197     -45687.057      42.470733    
      3800   575.33217     -9.1986445      0             -9.124277      -26094.59       41.49171     
      3900   1089.4256     -9.2603773      0             -9.119558       1060.6406      40.164956    
      4000   168.60267     -9.2397431      0             -9.2179495      11430.593      39.684496    
      4100   4.5385098     -9.232323       0             -9.2317363      16085.243      39.502795    
      4200   235.30882     -9.2423627      0             -9.2119466      32262.136      38.890024    
      4300   566.52672     -9.2322331      0             -9.1590038      35821.629      38.832718    
      4400   172.1896      -9.1523949      0             -9.1301377     -13063.177      41.013075    
      4500   73.585843     -9.1547103      0             -9.1451986     -28785.525      41.707572    
      4600   256.40413     -9.2479641      0             -9.2148212     -20132.698      40.993065    
      4700   127.46279     -9.2525548      0             -9.2360789     -8908.3363      40.470468    
      4800   0.64869408    -9.2298125      0             -9.2297286     -2156.3682      40.245335    
      4900   259.96838     -9.2416564      0             -9.2080528      422.13562      40.135735    
      5000   630.46764     -9.2559986      0             -9.1745043      4606.1021      39.969667    
      5100   193.72383     -9.187442       0             -9.1624012      11377.637      39.860701    
      5200   45.624767     -9.1753153      0             -9.1694179      14805.234      39.743223    
      5300   457.39088     -9.242792       0             -9.1836696      9675.6547      39.784365    
      5400   487.88932     -9.2460405      0             -9.1829759     -16349.007      40.867222    
      5500   75.88386      -9.1617116      0             -9.1519028     -46859.708      42.560394    
      5600   127.46991     -9.1652723      0             -9.1487956     -46787.757      42.550626    
      5700   597.30832     -9.2476478      0             -9.1704396     -17468.136      40.927086    
      5800   536.26234     -9.2316781      0             -9.1623608     -851.57614      40.261206    
      5900   84.41244      -9.1688744      0             -9.1579633      4701.9477      40.180334    
      6000   176.08985     -9.2029145      0             -9.1801531      17819.546      39.552437    
      6100   312.99861     -9.2453733      0             -9.204915       34005.49       38.827241    
      6200   120.82733     -9.2406999      0             -9.2250817      21570.228      39.28074     
      6300   23.167281     -9.2292771      0             -9.2262825     -11088.844      40.628724    
      6400   485.14919     -9.217057       0             -9.1543466     -32653.856      41.71458     
      6500   830.78075     -9.2273442      0             -9.1199574     -19766.356      41.136878    
      6600   281.96612     -9.204553       0             -9.168106      -10014.543      40.70701     
      6700   68.694787     -9.2241823      0             -9.2153028     -58.308759      40.187009    
      6800   150.8942      -9.2393823      0             -9.2198776      28212.993      39.038005    
      6900   288.44018     -9.1913737      0             -9.1540899      73786.78       37.602941    
      7000   621.35224     -9.1570305      0             -9.0767144      49292.543      38.576667    
      7100   288.47381     -9.1749738      0             -9.1376856      5498.428       40.157473    
      7200   187.45433     -9.2226913      0             -9.1984609     -14892.623      40.841409    
      7300   212.27995     -9.2448157      0             -9.2173763     -17039.091      40.860967    
      7400   172.26649     -9.2378662      0             -9.215599      -8110.889       40.493325    
      7500   260.52753     -9.1607922      0             -9.1271164     -7548.3068      40.75424     
      7600   321.51423     -9.1437122      0             -9.1021532      137.60943      40.494718    
      7700   347.28046     -9.1866487      0             -9.1417592      54108.048      38.285778    
      7800   321.60301     -9.186762       0             -9.1451916      78374.626      37.470689    
      7900   213.85915     -9.2188905      0             -9.191247       37761.91       38.755869    
      8000   163.60339     -9.2122151      0             -9.1910677      6776.0434      39.960663    
      8100   910.32464     -9.172421       0             -9.0547523     -16372.981      41.197601    
      8200   607.08082     -9.0792307      0             -9.0007593     -29510.614      42.129875    
      8300   620.90296     -9.2360461      0             -9.1557881     -8809.1357      40.594632    
      8400   332.63771     -9.2456435      0             -9.2026467      1396.3014      40.092763    
      8500   33.604575     -9.2168043      0             -9.2124605      12735.028      39.688146    
      8600   194.66974     -9.2014639      0             -9.1763009      53554.166      38.243371    
      8700   1011.1185     -9.2262738      0             -9.0955765      56430.335      38.176118    
      8800   946.02142     -9.2129395      0             -9.0906566      8250.0614      40.007735    
      8900   84.811967     -9.1814943      0             -9.1705315     -15679.037      41.009099    
      9000   126.12922     -9.2110714      0             -9.1947679     -13494.873      40.812301    
      9100   473.76098     -9.2555235      0             -9.1942851     -7923.3982      40.468717    
      9200   342.47573     -9.2256854      0             -9.181417      -3220.6336      40.352815    
      9300   48.080654     -9.1410678      0             -9.1348529     -1580.526       40.536622    
      9400   388.97124     -9.0825352      0             -9.0322567     -170.30611      40.741894    
      9500   525.54723     -9.2253336      0             -9.1574013      614.64046      40.220285    
      9600   352.21297     -9.2508653      0             -9.2053382     -4212.3945      40.310586    
      9700   101.59507     -9.2167326      0             -9.2036004     -12576.711      40.748637    
      9800   149.94687     -9.1945916      0             -9.1752095     -22204.775      41.264058    
      9900   811.96772     -9.1860807      0             -9.0811257     -21497.971      41.364449    
     10000   1051.3942     -9.2248192      0             -9.0889158      19561.432      39.533738    
Loop time of 0.0342837 on 1 procs for 10000 steps with 2 atoms

Performance: 25201.505 ns/day, 0.001 hours/ns, 291684.084 timesteps/s, 583.368 katom-step/s
96.2% CPU use with 1 MPI tasks x no OpenMP threads

MPI task timing breakdown:
Section |  min time  |  avg time  |  max time  |%varavg| %total
---------------------------------------------------------------
Pair    | 0.022422   | 0.022422   | 0.022422   |   0.0 | 65.40
Neigh   | 0          | 0          | 0          |   0.0 |  0.00
Comm    | 0.003678   | 0.003678   | 0.003678   |   0.0 | 10.73
Output  | 0.00089346 | 0.00089346 | 0.00089346 |   0.0 |  2.61
Modify  | 0.0059044  | 0.0059044  | 0.0059044  |   0.0 | 17.22
Other   |            | 0.001386   |            |       |  4.04

Nlocal:              2 ave           2 max           2 min
Histogram: 1 0 0 0 0 0 0 0 0 0
Nghost:            126 ave         126 max         126 min
Histogram: 1 0 0 0 0 0 0 0 0 0
Neighs:              0 ave           0 max           0 min
Histogram: 1 0 0 0 0 0 0 0 0 0
FullNghs:           56 ave          56 max          56 min
Histogram: 1 0 0 0 0 0 0 0 0 0

Total # of neighbors = 56
Ave neighs/atom = 28
Neighbor list builds = 0
Dangerous builds = 0
write_restart md.restart
System init for write_restart ...
Total wall time: 0:00:00
