LAMMPS (29 Aug 2024 - Development - patch_29Aug2024-704-g6d0e633edf)
# LAMMPS input generated from LammpsInputFile with pymatgen v2024.10.29

# Initialization
units metal
atom_style atomic
dimension 3
boundary p p p
pair_style tersoff

# AtomDefinition
read_data system.data
Reading data file ...
  triclinic box = (0 0 0) to (20.695659 17.922967 16.897935) with tilt (10.34783 10.34783 5.974322)
WARNING: Triclinic box skew is large. LAMMPS will run inefficiently. (src/domain.cpp:221)
  1 by 1 by 1 MPI processor grid
  reading atoms ...
  250 atoms
  read_data CPU = 0.001 seconds

# ForceField
include forcefield.lammps
pair_coeff * * /Users/virkaran/Code/Notebooks/lammps_flows/pmg_data/Si.tersoff Si
Reading tersoff potential file /Users/virkaran/Code/Notebooks/lammps_flows/pmg_data/Si.tersoff with DATE: 2007-10-25

# Velocities
velocity all create 3000 42 mom yes rot yes dist gaussian
neigh_modify delay 5 every 1 check yes

# Ensemble
fix 1 all npt temp 3000 1000 0.1 iso 1.0 1.0 0.1

# Outputs
thermo 100
dump d1 all custom 100 traj.dump id element x y z vx vy vz fx fy fz
dump_modify d1 sort id element Si

# Actions
write_restart md.restart
System init for write_restart ...
Neighbor list info ...
  update: every = 1 steps, delay = 5 steps, check = yes
  max neighbors/atom: 2000, page size: 100000
  master list distance cutoff = 5.2
  ghost atom cutoff = 5.2
  binsize = 2.6, bins = 16 10 7
  1 neighbor lists, perpetual/occasional/extra = 1 0 0
  (1) pair tersoff, perpetual
      attributes: full, newton on
      pair build: full/bin/atomonly
      stencil: full/bin/3d
      bin: standard
timestep 0.001
run 10000

CITE-CITE-CITE-CITE-CITE-CITE-CITE-CITE-CITE-CITE-CITE-CITE-CITE

Your simulation uses code contributions which should be cited:

- Type Label Framework: https://doi.org/10.1021/acs.jpcb.3c08419

@Article{Gissinger24,
 author = {Jacob R. Gissinger, Ilia Nikiforov, Yaser Afshar, Brendon Waters, Moon-ki Choi, Daniel S. Karls, Alexander Stukowski, Wonpil Im, Hendrik Heinz, Axel Kohlmeyer, and Ellad B. Tadmor},
 title = {Type Label Framework for Bonded Force Fields in LAMMPS},
 journal = {J. Phys. Chem. B},
 year =    2024,
 volume =  128,
 number =  13,
 pages =   {3282--3297}
}

CITE-CITE-CITE-CITE-CITE-CITE-CITE-CITE-CITE-CITE-CITE-CITE-CITE

Per MPI rank memory allocation (min/avg/max) = 3.111 | 3.111 | 3.111 Mbytes
   Step          Temp          E_pair         E_mol          TotEng         Press          Volume    
         0   3000          -971.25594      0             -874.69861      7615.2924      6267.9107    
       100   2968.855      -970.25652      0             -874.70162      483.90138      6524.8834    
       200   2948.0416     -968.3399       0             -873.4549      -10168.356      6851.593     
       300   3070.5372     -971.44761      0             -872.61999      531.46839      7298.2822    
       400   2940.772      -972.70187      0             -878.05084      11301.835      7134.1424    
       500   2688.1159     -971.1905       0             -884.6714       1216.9385      7290.4535    
       600   2795.1738     -976.62819      0             -886.66335      4120.9947      7589.6077    
       700   2861.2356     -975.31004      0             -883.21895     -2977.9015      7868.4634    
       800   2954.4282     -970.23389      0             -875.14333      3728.4169      8417.4315    
       900   3126.5059     -975.25996      0             -874.63094      4147.8407      8688.8868    
      1000   2764.9097     -976.28294      0             -887.29217     -632.98678      9057.2663    
      1100   2782.393      -978.57261      0             -889.01913     -4540.601       9066.8231    
      1200   2833.9306     -982.1281       0             -890.91585     -2560.1088      8916.4217    
      1300   2588.7057     -982.27162      0             -898.95211      1641.8664      10200.987    
      1400   2643.2912     -989.32184      0             -904.24546     -2677.8046      9869.6407    
      1500   2778.8596     -988.2238       0             -898.78405     -2158.5516      10279.824    
      1600   2636.1826     -979.9461       0             -895.09852      7473.0913      11244.818    
      1700   2808.5986     -986.6061       0             -896.20918     -1524.5059      11011.506    
      1800   2641.1313     -987.57269      0             -902.56583     -46.739955      10787.625    
      1900   2603.8713     -993.01827      0             -909.21065      693.25888      10388.246    
      2000   2479.2943     -990.87494      0             -911.07693     -2164.3082      10649.768    
      2100   2724.927      -991.9209       0             -904.21701      3226.3812      10496.083    
      2200   2824.3838     -987.67033      0             -896.76534      344.59792      10416.949    
      2300   2720.3218     -991.80583      0             -904.25016     -6051.1692      10342.048    
      2400   2539.807      -990.3016       0             -908.55594      2606.6299      10264.157    
      2500   2486.8441     -991.44315      0             -911.40214      1789.1996      10368.541    
      2600   2308.7953     -990.49537      0             -916.185        4312.8834      9969.6911    
      2700   2351.4992     -994.65683      0             -918.97201     -6884.9698      10118.352    
      2800   2260.2659     -989.25814      0             -916.50973     -2903.7002      10295.412    
      2900   2555.3571     -990.37284      0             -908.12668      7035.9747      10366.922    
      3000   2572.1415     -989.74981      0             -906.96344      2079.0115      10361.651    
      3100   2375.6578     -993.48364      0             -917.02125     -3261.3728      10870.606    
      3200   2254.4939     -991.1387       0             -918.57606     -4039.9816      11339.215    
      3300   2484.8799     -999.12543      0             -919.14764     -851.99595      11206.87     
      3400   2378.6218     -1002.0653      0             -925.50749      1605.2516      10773.621    
      3500   2270.716      -1006.3275      0             -933.24272      1414.6734      11316.786    
      3600   2236.3679     -1005.1107      0             -933.13149     -1265.4959      11193.2      
      3700   2266.1542     -1005.0487      0             -932.11078      1055.7929      10921.011    
      3800   2288.7032     -1008.7515      0             -935.08781      366.02206      12100.735    
      3900   2146.1466     -1011.6629      0             -942.58748     -5746.3188      12472.753    
      4000   2054.0932     -1015.2721      0             -949.15956      4115.0117      12920.044    
      4100   2111.3411     -1014.8445      0             -946.88931     -3287.9191      13891.133    
      4200   2124.6784     -1011.7442      0             -943.35982      2284.216       13893.224    
      4300   2206.7775     -1012.7753      0             -941.74842      2949.6601      14913.21     
      4400   2362.6994     -1021.1939      0             -945.14856     -1944.6621      15115.826    
      4500   2026.5863     -1019.8743      0             -954.64708      4385.1603      15660.23     
      4600   1987.7775     -1019.6096      0             -955.6314      -2888.9077      16761.66     
      4700   2052.1086     -1017.2498      0             -951.20113      1994.9674      17796.531    
      4800   2197.6487     -1017.7186      0             -946.98561      2214.0469      18829.967    
      4900   2221.8504     -1022.1815      0             -950.66947      646.6497       19774.899    
      5000   1953.0296     -1017.3185      0             -954.45876      2404.5489      20739.808    
      5100   2009.5985     -1021.8092      0             -957.12874      743.10098      23110.093    
      5200   1990.8716     -1023.0494      0             -958.97164     -1808.9432      24068.998    
      5300   2027.6648     -1022.1457      0             -956.88377      351.78447      25496.789    
      5400   2170.9336     -1025.724       0             -955.85084      771.77321      26711.41     
      5500   1900.6975     -1025.7323      0             -964.55687     -1022.8816      28470.601    
      5600   1889.385      -1030.8384      0             -970.02706      3477.0187      29241.379    
      5700   1877.8484     -1036.2863      0             -975.84629     -2428.9354      33342.131    
      5800   1803.252      -1036.9095      0             -978.87041     -54.559094      33672.852    
      5900   1834.5239     -1036.867       0             -977.82138     -279.69393      36665.146    
      6000   1937.8786     -1035.9094      0             -973.5373      -1245.9638      39328.862    
      6100   1842.6902     -1042.018       0             -982.70961      652.57726      44697.639    
      6200   1713.1092     -1042.4492      0             -987.31142     -614.40099      48466.866    
      6300   1820.5544     -1047.5741      0             -988.97811     -285.51762      50437.72     
      6400   1679.4725     -1046.1858      0             -992.13063      906.02203      53223.429    
      6500   1726.9082     -1049.7234      0             -994.1415      -496.2179       58755.882    
      6600   1661.9436     -1050.5298      0             -997.03883      241.42427      61762.328    
      6700   1513.1831     -1050.4041      0             -1001.7011      757.96922      68295.991    
      6800   1651.566      -1057.8969      0             -1004.7399     -36.349226      75385.007    
      6900   1698.1979     -1057.384       0             -1002.7262      168.93805      81669.061    
      7000   1708.6483     -1051.8566      0             -996.86241     -24.950806      89940.622    
      7100   1744.2099     -1055.8292      0             -999.69042     -182.50337      103694.08    
      7200   1660.661      -1059.5821      0             -1006.1324     -103.66366      116779.33    
      7300   1564.8276     -1059.651       0             -1009.2858     -328.0901       129554.79    
      7400   1684.6937     -1067.1782      0             -1012.955       181.58904      139056.33    
      7500   1442.6325     -1063.6381      0             -1017.2059      55.95873       145100.44    
      7600   1388.8814     -1063.1155      0             -1018.4133     -137.21489      157620.61    
      7700   1434.2281     -1063.6741      0             -1017.5123      178.88231      169801.99    
      7800   1597.5693     -1064.0168      0             -1012.5978      68.455549      185990.42    
      7900   1501.6032     -1059.0771      0             -1010.7468     -95.040788      206486.69    
      8000   1446.7055     -1063.0419      0             -1016.4786     -8.4253699      223229.42    
      8100   1398.9942     -1064.6067      0             -1019.579       360.80579      237675.19    
      8200   1286.5741     -1063.6238      0             -1022.2144     -185.14204      257847.2     
      8300   1304.7893     -1067.5466      0             -1025.551       149.34924      271965.43    
      8400   1246.7913     -1067.201       0             -1027.072      -38.349332      288485.35    
      8500   1168.5126     -1067.7776      0             -1030.1681     -103.86357      309143.79    
      8600   1211.5428     -1072.9146      0             -1033.9201     -70.629953      325368.12    
      8700   1245.6307     -1072.8572      0             -1032.7657     -92.635651      341917.36    
      8800   1338.3341     -1071.3943      0             -1028.3189      50.464926      348808.53    
      8900   1353.8588     -1072.9628      0             -1029.3878      63.078622      380197.88    
      9000   1205.0954     -1070.8132      0             -1032.0262     -55.848045      398893.44    
      9100   1171.1476     -1072.6919      0             -1034.9976     -14.664846      404008.69    
      9200   1125.114      -1073.1859      0             -1036.9732      141.91792      396913.11    
      9300   1168.7034     -1075.7444      0             -1038.1288     -154.41977      422079.12    
      9400   1166.3682     -1078.5565      0             -1041.016       32.045168      442320.19    
      9500   1107.9843     -1077.9946      0             -1042.3333     -91.476937      459088.59    
      9600   1116.7969     -1078.7522      0             -1042.8072      28.227897      461216.38    
      9700   1093.3549     -1078.3305      0             -1043.14        10.180674      462773.41    
      9800   1041.4414     -1078.7365      0             -1045.2169      29.434221      472738.82    
      9900   1062.8775     -1083.8706      0             -1049.6611      29.056939      486524.92    
     10000   953.84219     -1080.703       0             -1050.0028     -62.156982      515448.12    
Loop time of 5.23082 on 1 procs for 10000 steps with 250 atoms

Performance: 165.175 ns/day, 0.145 hours/ns, 1911.747 timesteps/s, 477.937 katom-step/s
98.5% CPU use with 1 MPI tasks x no OpenMP threads

MPI task timing breakdown:
Section |  min time  |  avg time  |  max time  |%varavg| %total
---------------------------------------------------------------
Pair    | 5.0103     | 5.0103     | 5.0103     |   0.0 | 95.78
Neigh   | 0.080323   | 0.080323   | 0.080323   |   0.0 |  1.54
Comm    | 0.017033   | 0.017033   | 0.017033   |   0.0 |  0.33
Output  | 0.04939    | 0.04939    | 0.04939    |   0.0 |  0.94
Modify  | 0.065307   | 0.065307   | 0.065307   |   0.0 |  1.25
Other   |            | 0.008462   |            |       |  0.16

Nlocal:            250 ave         250 max         250 min
Histogram: 1 0 0 0 0 0 0 0 0 0
Nghost:             88 ave          88 max          88 min
Histogram: 1 0 0 0 0 0 0 0 0 0
Neighs:              0 ave           0 max           0 min
Histogram: 1 0 0 0 0 0 0 0 0 0
FullNghs:         1934 ave        1934 max        1934 min
Histogram: 1 0 0 0 0 0 0 0 0 0

Total # of neighbors = 1934
Ave neighs/atom = 7.736
Neighbor list builds = 409
Dangerous builds = 0
Total wall time: 0:00:05
