ITEM: TIMESTEP
0
ITEM: NUMBER OF ATOMS
2
ITEM: BOX BOUNDS xy xz yz pp pp pp
0.0000000000000000e+00 7.8769650000000002e+00 1.9692410000000000e+00
0.0000000000000000e+00 4.5477679999999996e+00 1.9692410000000000e+00
0.0000000000000000e+00 3.2157580000000001e+00 1.1369419999999999e+00
ITEM: ATOMS id element x y z vx vy vz fx fy fz
1 Si 1.91796 1.09702 0.76841 -1.56961 -2.6905 -1.90247 0.427683 0.246826 0.174568
2 Si 3.91825 4.52576 3.1929 1.56961 2.6905 1.90247 -0.427683 -0.246826 -0.174568
ITEM: TIMESTEP
100
ITEM: NUMBER OF ATOMS
2
ITEM: BOX BOUNDS xy xz yz pp pp pp
1.7687056289371669e-02 7.8239038401135428e+00 1.9515539482014570e+00
1.5317438581110820e-02 4.5222389356981445e+00 1.9515539482014570e+00
1.4441421420124218e-02 3.2013165785798758e+00 1.1267303742792596e+00
ITEM: ATOMS id element x y z vx vy vz fx fy fz
1 Si 1.95915 1.14219 0.804028 -0.50441 1.0861 0.767864 -0.533891 -0.795973 -0.562868
2 Si 3.86001 4.46073 3.15059 0.50441 -1.0861 -0.767864 0.533891 0.795973 0.562868
ITEM: TIMESTEP
200
ITEM: NUMBER OF ATOMS
2
ITEM: BOX BOUNDS xy xz yz pp pp pp
3.6734941201269126e-02 7.7667601950505532e+00 1.9325060681259103e+00
3.1813389205375013e-02 4.4947456846577039e+00 1.9325060681259103e+00
2.9993954791098187e-02 3.1857640452089031e+00 1.1157330738630837e+00
ITEM: ATOMS id element x y z vx vy vz fx fy fz
1 Si 1.91905 1.0727 0.758853 3.07933 2.04913 1.44913 0.595804 1.30626 0.923655
2 Si 3.88176 4.50882 3.18855 -3.07933 -2.04913 -1.44913 -0.595804 -1.30626 -0.923655
ITEM: TIMESTEP
300
ITEM: NUMBER OF ATOMS
2
ITEM: BOX BOUNDS xy xz yz pp pp pp
4.3790614012273868e-02 7.7455931802004718e+00 1.9254503971063743e+00
3.7923780508643715e-02 4.4845616991522510e+00 1.9254503971063743e+00
3.5754887690230913e-02 3.1800031123097701e+00 1.1116594796609027e+00
ITEM: ATOMS id element x y z vx vy vz fx fy fz
1 Si 1.95831 1.16361 0.824599 -2.2885 -4.77175 -3.37421 -0.482739 -1.27846 -0.903912
2 Si 3.8357 4.40998 3.12013 2.2885 4.77175 3.37421 0.482739 1.27846 0.903912
ITEM: TIMESTEP
400
ITEM: NUMBER OF ATOMS
2
ITEM: BOX BOUNDS xy xz yz pp pp pp
5.9927616241502092e-02 7.6971821817073165e+00 1.9093133989744091e+00
5.1898833026455621e-02 4.4612699449558955e+00 1.9093133989744091e+00
4.8930695232032792e-02 3.1668273047679678e+00 1.1023427779823594e+00
ITEM: ATOMS id element x y z vx vy vz fx fy fz
1 Si 1.93667 1.12137 0.798084 1.90017 4.14001 2.92734 -0.0714467 0.0956834 0.067596
2 Si 3.84179 4.4341 3.14054 -1.90017 -4.14001 -2.92734 0.0714467 -0.0956834 -0.067596
ITEM: TIMESTEP
500
ITEM: NUMBER OF ATOMS
2
ITEM: BOX BOUNDS xy xz yz pp pp pp
6.4898366575695990e-02 7.6822699332289250e+00 1.9043426499023122e+00
5.6203628674775984e-02 4.4540952855420306e+00 1.9043426499023122e+00
5.2989296006287830e-02 3.1627687039937138e+00 1.0994729142168140e+00
ITEM: ATOMS id element x y z vx vy vz fx fy fz
1 Si 1.92706 1.10148 0.785056 -1.51056 -2.65473 -1.87699 0.304797 0.82137 0.580798
2 Si 3.8466 4.4484 3.15169 1.51056 2.65473 1.87699 -0.304797 -0.82137 -0.580798
ITEM: TIMESTEP
600
ITEM: NUMBER OF ATOMS
2
ITEM: BOX BOUNDS xy xz yz pp pp pp
6.4638331353279871e-02 7.6830500387641250e+00 1.9046026850587034e+00
5.5978431588098773e-02 4.4544706140198294e+00 1.9046026850587034e+00
5.2776978129895263e-02 3.1629810218701095e+00 1.0996230456079334e+00
ITEM: ATOMS id element x y z vx vy vz fx fy fz
1 Si 1.95295 1.16158 0.827496 0.364915 -0.09926 -0.0703698 -0.443577 -1.16077 -0.820731
2 Si 3.82097 4.3886 3.10934 -0.364915 0.09926 0.0703698 0.443577 1.16077 0.820731
ITEM: TIMESTEP
700
ITEM: NUMBER OF ATOMS
2
ITEM: BOX BOUNDS xy xz yz pp pp pp
4.6593027727410585e-02 7.7371859404781596e+00 1.9226479841027841e+00
4.0350741742792982e-02 4.4805167637620098e+00 1.9226479841027841e+00
3.8043048975618859e-02 3.1777149510243872e+00 1.1100415055048050e+00
ITEM: ATOMS id element x y z vx vy vz fx fy fz
1 Si 1.91898 1.09504 0.7767 1.05262 2.94467 2.08221 0.570989 0.799941 0.56557
2 Si 3.87233 4.47541 3.16697 -1.05262 -2.94467 -2.08221 -0.570989 -0.799941 -0.56557
ITEM: TIMESTEP
800
ITEM: NUMBER OF ATOMS
2
ITEM: BOX BOUNDS xy xz yz pp pp pp
2.0948100136562130e-02 7.8141207102279573e+00 1.9482929051822597e+00
1.8141585122089438e-02 4.5175320247965178e+00 1.9482929051822597e+00
1.7104052651479674e-02 3.1986539473485287e+00 1.1248476099186084e+00
ITEM: ATOMS id element x y z vx vy vz fx fy fz
1 Si 1.95398 1.11232 0.783582 -2.20467 -4.75506 -3.36201 -0.567921 0.0294194 0.0208481
2 Si 3.86204 4.48694 3.1698 2.20467 4.75506 3.36201 0.567921 -0.0294194 -0.0208481
ITEM: TIMESTEP
900
ITEM: NUMBER OF ATOMS
2
ITEM: BOX BOUNDS xy xz yz pp pp pp
3.3015275633509991e-02 7.7779191898649405e+00 1.9362257327492256e+00
2.8592064642137715e-02 4.5001145589297735e+00 1.9362257327492256e+00
2.6956860481730786e-02 3.1888011395182727e+00 1.1178806235719101e+00
ITEM: ATOMS id element x y z vx vy vz fx fy fz
1 Si 1.94177 1.14881 0.811898 3.61579 3.917 2.76917 -0.170093 -0.951141 -0.672596
2 Si 3.86263 4.43689 3.13691 -3.61579 -3.917 -2.76917 0.170093 0.951141 0.672596
ITEM: TIMESTEP
1000
ITEM: NUMBER OF ATOMS
2
ITEM: BOX BOUNDS xy xz yz pp pp pp
4.0643852570890766e-02 7.7550334629266624e+00 1.9285971577487777e+00
3.5198605424722355e-02 4.4891036576254644e+00 1.9285971577487777e+00
3.3185567655278386e-02 3.1825724323447235e+00 1.1134762630501869e+00
ITEM: ATOMS id element x y z vx vy vz fx fy fz
1 Si 1.91934 1.09059 0.772317 -2.73721 -0.634535 -0.448432 0.547783 0.856625 0.605657
2 Si 3.8777 4.48654 3.17361 2.73721 0.634535 0.448432 -0.547783 -0.856625 -0.605657
ITEM: TIMESTEP
1100
ITEM: NUMBER OF ATOMS
2
ITEM: BOX BOUNDS xy xz yz pp pp pp
4.5444248604895016e-02 7.7406322772623311e+00 1.9237967629336152e+00
3.9355869935724118e-02 4.4821748834404662e+00 1.9237967629336152e+00
3.7105074721709923e-02 3.1786529252782931e+00 1.1107047533761885e+00
ITEM: ATOMS id element x y z vx vy vz fx fy fz
1 Si 1.95907 1.1368 0.805984 0.205456 -1.45391 -1.02802 -0.671274 -0.480143 -0.339414
2 Si 3.83335 4.43494 3.13812 -0.205456 1.45391 1.02802 0.671274 0.480143 0.339414
ITEM: TIMESTEP
1200
ITEM: NUMBER OF ATOMS
2
ITEM: BOX BOUNDS xy xz yz pp pp pp
5.6969049334700400e-02 7.7060578809253197e+00 1.9122719651300124e+00
4.9336639174549203e-02 4.4655402680424192e+00 1.9122719651300124e+00
4.6515035395725608e-02 3.1692429646042757e+00 1.1040509072169693e+00
ITEM: ATOMS id element x y z vx vy vz fx fy fz
1 Si 1.91973 1.12589 0.800664 2.16175 2.31347 1.63559 0.477288 -0.0662083 -0.0468781
2 Si 3.86159 4.43291 3.13908 -2.16175 -2.31347 -1.63559 -0.477288 0.0662083 0.0468781
ITEM: TIMESTEP
1300
ITEM: NUMBER OF ATOMS
2
ITEM: BOX BOUNDS xy xz yz pp pp pp
7.1472187587780928e-02 7.6625484735309088e+00 1.8977688305593488e+00
6.1896724119742612e-02 4.4446067931337607e+00 1.8977688305593488e+00
5.8356798547288029e-02 3.1574012014527142e+00 1.0956775172535060e+00
ITEM: ATOMS id element x y z vx vy vz fx fy fz
1 Si 1.93224 1.1067 0.790109 -4.26635 -1.78824 -1.26406 0.102972 0.73097 0.516806
2 Si 3.8351 4.43581 3.14414 4.26635 1.78824 1.26406 -0.102972 -0.73097 -0.516806
ITEM: TIMESTEP
1400
ITEM: NUMBER OF ATOMS
2
ITEM: BOX BOUNDS xy xz yz pp pp pp
6.6358801303879389e-02 7.6778886297859854e+00 1.9028822155449359e+00
5.7468402127449456e-02 4.4519873297875820e+00 1.9028822155449359e+00
5.4181736004287828e-02 3.1615762639957139e+00 1.0986297319150355e+00
ITEM: ATOMS id element x y z vx vy vz fx fy fz
1 Si 1.98065 1.1682 0.832528 4.6553 -0.461203 -0.326436 -1.02476 -1.19636 -0.845701
2 Si 3.79161 4.38005 3.10366 -4.6553 0.461203 0.326436 1.02476 1.19636 0.845701
ITEM: TIMESTEP
1500
ITEM: NUMBER OF ATOMS
2
ITEM: BOX BOUNDS xy xz yz pp pp pp
5.0985274457172478e-02 7.7240092025192766e+00 1.9182557384882277e+00
4.4154538622023780e-02 4.4741771022966272e+00 1.9182557384882277e+00
4.1629303520635007e-02 3.1741286964793618e+00 1.1075056409186521e+00
ITEM: ATOMS id element x y z vx vy vz fx fy fz
1 Si 1.87786 1.10572 0.785168 -2.61693 1.35844 0.960392 1.96417 0.745874 0.527264
2 Si 3.90922 4.45979 3.15684 2.61693 -1.35844 -0.960392 -1.96417 -0.745874 -0.527264
ITEM: TIMESTEP
1600
ITEM: NUMBER OF ATOMS
2
ITEM: BOX BOUNDS xy xz yz pp pp pp
1.9421070786052687e-02 7.8187017975040236e+00 1.9498199341450426e+00
1.6819139040318419e-02 4.5197361015994684e+00 1.9498199341450426e+00
1.5857238370415739e-02 3.1999007616295816e+00 1.1257292406397885e+00
ITEM: ATOMS id element x y z vx vy vz fx fy fz
1 Si 1.98666 1.11447 0.784786 -0.705066 -1.8408 -1.30125 -1.41276 0.121358 0.0858383
2 Si 3.83084 4.4865 3.16917 0.705066 1.8408 1.30125 1.41276 -0.121358 -0.0858383
ITEM: TIMESTEP
1700
ITEM: NUMBER OF ATOMS
2
ITEM: BOX BOUNDS xy xz yz pp pp pp
1.9182011530213591e-03 7.8712103975149876e+00 1.9673227993340086e+00
1.6612107671866434e-03 4.5449993153880239e+00 1.9673227993340086e+00
1.5662047299555865e-03 3.2141917952700392e+00 1.1358345261552105e+00
ITEM: ATOMS id element x y z vx vy vz fx fy fz
1 Si 1.91108 1.12154 0.78615 3.46718 0.985362 0.696498 0.517125 -0.355883 -0.251598
2 Si 3.92329 4.49909 3.17444 -3.46718 -0.985362 -0.696498 -0.517125 0.355883 0.251598
ITEM: TIMESTEP
1800
ITEM: NUMBER OF ATOMS
2
ITEM: BOX BOUNDS xy xz yz pp pp pp
2.6621419763874461e-02 7.7971007542269657e+00 1.9426195869954239e+00
2.3054823567236128e-02 4.5093432940546059e+00 1.9426195869954239e+00
2.1736298868637521e-02 3.1940217011313594e+00 1.1215721176218429e+00
ITEM: ATOMS id element x y z vx vy vz fx fy fz
1 Si 1.92281 1.10418 0.779011 -3.50696 0.478032 0.337988 0.347221 0.295662 0.208994
2 Si 3.88775 4.4887 3.17222 3.50696 -0.478032 -0.337988 -0.347221 -0.295662 -0.208994
ITEM: TIMESTEP
1900
ITEM: NUMBER OF ATOMS
2
ITEM: BOX BOUNDS xy xz yz pp pp pp
3.2134823779257943e-02 7.7805605449805730e+00 1.9371061843799200e+00
2.7829571043403528e-02 4.5013853815943268e+00 1.9371061843799200e+00
2.6237974531501458e-02 3.1895200254684930e+00 1.1183889526377304e+00
ITEM: ATOMS id element x y z vx vy vz fx fy fz
1 Si 1.9649 1.11874 0.790448 1.20188 -1.35236 -0.956027 -0.886344 -0.017625 -0.0124376
2 Si 3.84034 4.46795 3.1587 -1.20188 1.35236 0.956027 0.886344 0.017625 0.0124376
ITEM: TIMESTEP
2000
ITEM: NUMBER OF ATOMS
2
ITEM: BOX BOUNDS xy xz yz pp pp pp
3.9983625929505003e-02 7.7570141425155326e+00 1.9292573842225227e+00
3.4626832436410959e-02 4.4900566126059784e+00 1.9292573842225227e+00
3.2646494843782459e-02 3.1831115051562131e+00 1.1138574450423928e+00
ITEM: ATOMS id element x y z vx vy vz fx fy fz
1 Si 1.89838 1.13292 0.802108 2.25442 1.37252 0.970235 0.961279 -0.349053 -0.246765
2 Si 3.89929 4.44495 3.14407 -2.25442 -1.37252 -0.970235 -0.961279 0.349053 0.246765
ITEM: TIMESTEP
2100
ITEM: NUMBER OF ATOMS
2
ITEM: BOX BOUNDS xy xz yz pp pp pp
6.4842557873183576e-02 7.6824373593081017e+00 1.9043984585906475e+00
5.6155296925333283e-02 4.4541758384577719e+00 1.9043984585906475e+00
5.2943728390133761e-02 3.1628142716098617e+00 1.0995051353831091e+00
ITEM: ATOMS id element x y z vx vy vz fx fy fz
1 Si 1.95236 1.10312 0.786208 -6.49005 0.569915 0.403022 -0.700642 0.787065 0.556394
2 Si 3.82137 4.44683 3.15055 6.49005 -0.569915 -0.403022 0.700642 -0.787065 -0.556394
ITEM: TIMESTEP
2200
ITEM: NUMBER OF ATOMS
2
ITEM: BOX BOUNDS xy xz yz pp pp pp
9.1385189941325162e-02 7.6028094765822809e+00 1.8778558332618085e+00
7.9141888353164019e-02 4.4158648527447228e+00 1.8778558332618085e+00
7.4615697372653625e-02 3.1411423026273422e+00 1.0841807410978896e+00
ITEM: ATOMS id element x y z vx vy vz fx fy fz
1 Si 1.93765 1.16283 0.833933 5.10129 -2.65413 -1.87635 -0.0731516 -1.0853 -0.767272
2 Si 3.8105 4.35731 3.09278 -5.10129 2.65413 1.87635 0.0731516 1.0853 0.767272
ITEM: TIMESTEP
2300
ITEM: NUMBER OF ATOMS
2
ITEM: BOX BOUNDS xy xz yz pp pp pp
6.2392967889475959e-02 7.6897861280152959e+00 1.9068480479523917e+00
5.4033889976068769e-02 4.4577115167065537e+00 1.9068480479523917e+00
5.0943646483766786e-02 3.1648143535162276e+00 1.1009194066826209e+00
ITEM: ATOMS id element x y z vx vy vz fx fy fz
1 Si 1.90589 1.12686 0.80248 -1.76747 2.47778 1.75168 0.946917 0.00699142 0.00492199
2 Si 3.8702 4.42584 3.13521 1.76747 -2.47778 -1.75168 -0.946917 -0.00699142 -0.00492199
ITEM: TIMESTEP
2400
ITEM: NUMBER OF ATOMS
2
ITEM: BOX BOUNDS xy xz yz pp pp pp
5.1835272977534562e-02 7.7214592073898247e+00 1.9174057401836844e+00
4.4890658862534967e-02 4.4729502352291099e+00 1.9174057401836844e+00
4.2323324427117608e-02 3.1734346755728753e+00 1.1070148940916438e+00
ITEM: ATOMS id element x y z vx vy vz fx fy fz
1 Si 1.96109 1.10302 0.783429 -0.718373 -1.40863 -0.995843 -0.971352 0.654429 0.462673
2 Si 3.82517 4.46154 3.15826 0.718373 1.40863 0.995843 0.971352 -0.654429 -0.462673
ITEM: TIMESTEP
2500
ITEM: NUMBER OF ATOMS
2
ITEM: BOX BOUNDS xy xz yz pp pp pp
4.6215122283288661e-02 7.7383196566185921e+00 1.9230258894509449e+00
4.0023466059660555e-02 4.4810622232339021e+00 1.9230258894509449e+00
3.7734490463324125e-02 3.1780235095366680e+00 1.1102596892935601e+00
ITEM: ATOMS id element x y z vx vy vz fx fy fz
1 Si 1.9208 1.14742 0.813648 2.56115 -0.702062 -0.496352 0.334363 -0.834096 -0.589664
2 Si 3.87088 4.42346 3.13017 -2.56115 0.702062 0.496352 -0.334363 0.834096 0.589664
ITEM: TIMESTEP
2600
ITEM: NUMBER OF ATOMS
2
ITEM: BOX BOUNDS xy xz yz pp pp pp
3.4198064672591608e-02 7.7743708233483053e+00 1.9350429440104537e+00
2.9616389898087445e-02 4.4984073501698578e+00 1.9350429440104537e+00
2.7922603717066778e-02 3.1878353962829240e+00 1.1171977400679431e+00
ITEM: ATOMS id element x y z vx vy vz fx fy fz
1 Si 1.91519 1.10448 0.780796 -3.14979 3.18687 2.25308 0.61437 0.381656 0.269782
2 Si 3.88807 4.47989 3.16757 3.14979 -3.18687 -2.25308 -0.61437 -0.381656 -0.269782
ITEM: TIMESTEP
2700
ITEM: NUMBER OF ATOMS
2
ITEM: BOX BOUNDS xy xz yz pp pp pp
1.0274048587119824e-02 7.8461428594558695e+00 1.9589669540215011e+00
8.8975862143486264e-03 4.5329386896427577e+00 1.9589669540215011e+00
8.3887257952907582e-03 3.2073692742046975e+00 1.1310102758571019e+00
ITEM: ATOMS id element x y z vx vy vz fx fy fz
1 Si 1.96539 1.09359 0.768122 2.66891 -5.77731 -4.08439 -0.943716 0.480793 0.339897
2 Si 3.86092 4.51766 3.1893 -2.66891 5.77731 4.08439 0.943716 -0.480793 -0.339897
ITEM: TIMESTEP
2800
ITEM: NUMBER OF ATOMS
2
ITEM: BOX BOUNDS xy xz yz pp pp pp
6.9263470764395017e-03 7.8561859622879169e+00 1.9623146546821830e+00
5.9983919426278868e-03 4.5377706800956226e+00 1.9623146546821830e+00
5.6553388758658740e-03 3.2101026611241239e+00 1.1329430720382483e+00
ITEM: ATOMS id element x y z vx vy vz fx fy fz
1 Si 1.90037 1.14648 0.804823 0.301174 5.05666 3.57434 0.611113 -0.912512 -0.645285
2 Si 3.92916 4.46853 3.15387 -0.301174 -5.05666 -3.57434 -0.611113 0.912512 0.645285
ITEM: TIMESTEP
2900
ITEM: NUMBER OF ATOMS
2
ITEM: BOX BOUNDS xy xz yz pp pp pp
3.1653046365736619e-02 7.7820058769764833e+00 1.9375879616711147e+00
2.7412339604738597e-02 4.5020807673254382e+00 1.9375879616711147e+00
2.5844604908789631e-02 3.1899133950911986e+00 1.1186671069301743e+00
ITEM: ATOMS id element x y z vx vy vz fx fy fz
1 Si 1.9443 1.07909 0.762319 -0.716948 -0.812349 -0.574017 -0.380278 1.05952 0.749057
2 Si 3.86141 4.50814 3.18701 0.716948 0.812349 0.574017 0.380278 -1.05952 -0.749057
ITEM: TIMESTEP
3000
ITEM: NUMBER OF ATOMS
2
ITEM: BOX BOUNDS xy xz yz pp pp pp
5.1472877965939440e-02 7.7225463922405826e+00 1.9177681351032647e+00
4.4576815606689572e-02 4.4734733073221866e+00 1.9177681351032647e+00
4.2027430130328780e-02 3.1737305698696612e+00 1.1072241229288735e+00
ITEM: ATOMS id element x y z vx vy vz fx fy fz
1 Si 1.93176 1.14949 0.816203 0.913028 -2.07873 -1.46972 0.0670745 -0.88248 -0.623758
2 Si 3.85485 4.41548 3.12562 -0.913028 2.07873 1.46972 -0.0670745 0.88248 0.623758
ITEM: TIMESTEP
3100
ITEM: NUMBER OF ATOMS
2
ITEM: BOX BOUNDS xy xz yz pp pp pp
5.3888423474460607e-02 7.7152997569416604e+00 1.9153525902080633e+00
4.6668739178440520e-02 4.4699867680359304e+00 1.9153525902080633e+00
4.3999714838272176e-02 3.1717582851617205e+00 1.1058295072143705e+00
ITEM: ATOMS id element x y z vx vy vz fx fy fz
1 Si 1.92732 1.1209 0.796506 -0.62122 3.62449 2.56225 0.235029 0.0522954 0.0368057
2 Si 3.85696 4.44135 3.1444 0.62122 -3.62449 -2.56225 -0.235029 -0.0522954 -0.0368057
ITEM: TIMESTEP
3200
ITEM: NUMBER OF ATOMS
2
ITEM: BOX BOUNDS xy xz yz pp pp pp
5.2147934665252846e-02 7.7205212224854387e+00 1.9170930785753511e+00
4.5161431800663253e-02 4.4724989469988952e+00 1.9170930785753511e+00
4.2578611633786206e-02 3.1731793883662083e+00 1.1068343787995556e+00
ITEM: ATOMS id element x y z vx vy vz fx fy fz
1 Si 1.94344 1.08944 0.773891 0.034431 -3.15486 -2.22982 -0.358291 1.03115 0.729015
2 Si 3.84251 4.47477 3.16768 -0.034431 3.15486 2.22982 0.358291 -1.03115 -0.729015
ITEM: TIMESTEP
3300
ITEM: NUMBER OF ATOMS
2
ITEM: BOX BOUNDS xy xz yz pp pp pp
4.6946407465163625e-02 7.7361258014443148e+00 1.9222946044547449e+00
4.0656777543233193e-02 4.4800067040946141e+00 1.9222946044547449e+00
3.8331582331920695e-02 3.1774264176680744e+00 1.1098374816378433e+00
ITEM: ATOMS id element x y z vx vy vz fx fy fz
1 Si 1.92576 1.18107 0.837585 0.602857 0.460632 0.324297 0.139804 -1.77557 -1.25495
2 Si 3.86521 4.38899 3.10595 -0.602857 -0.460632 -0.324297 -0.139804 1.77557 1.25495
ITEM: TIMESTEP
3400
ITEM: NUMBER OF ATOMS
2
ITEM: BOX BOUNDS xy xz yz pp pp pp
4.5598557310086281e-02 7.7401693512250969e+00 1.9236424542675974e+00
3.9489505181503043e-02 4.4819521580308290e+00 1.9236424542675974e+00
3.7231067255685237e-02 3.1785269327443060e+00 1.1106156632123303e+00
ITEM: ATOMS id element x y z vx vy vz fx fy fz
1 Si 1.93489 1.0745 0.761984 -0.691711 2.70758 1.91492 -0.023704 1.36667 0.965924
2 Si 3.85738 4.49707 3.18206 0.691711 -2.70758 -1.91492 0.023704 -1.36667 -0.965924
ITEM: TIMESTEP
3500
ITEM: NUMBER OF ATOMS
2
ITEM: BOX BOUNDS xy xz yz pp pp pp
3.3296989405680461e-02 7.7770740486914596e+00 1.9359440190485755e+00
2.8836035901805779e-02 4.4997079401636579e+00 1.9359440190485755e+00
2.7186878820406969e-02 3.1885711211795864e+00 1.1177179760654639e+00
ITEM: ATOMS id element x y z vx vy vz fx fy fz
1 Si 1.93559 1.12191 0.792921 0.264325 -3.04809 -2.15439 -0.0427261 -0.172798 -0.121897
2 Si 3.86854 4.46348 3.15578 -0.264325 3.04809 2.15439 0.0427261 0.172798 0.121897
ITEM: TIMESTEP
3600
ITEM: NUMBER OF ATOMS
2
ITEM: BOX BOUNDS xy xz yz pp pp pp
1.7003422166633093e-02 7.8259547421345683e+00 1.9522375821506066e+00
1.4725394121280483e-02 4.5232256764645316e+00 1.9522375821506066e+00
1.3883236479560478e-02 3.2018747635204305e+00 1.1271250705858149e+00
ITEM: ATOMS id element x y z vx vy vz fx fy fz
1 Si 1.93095 1.13155 0.796361 0.0201439 2.21997 1.56828 0.0669445 -0.563057 -0.398173
2 Si 3.88888 4.47214 3.15851 -0.0201439 -2.21997 -1.56828 -0.0669445 0.563057 0.398173
ITEM: TIMESTEP
3700
ITEM: NUMBER OF ATOMS
2
ITEM: BOX BOUNDS xy xz yz pp pp pp
1.1126186083791005e-02 7.8435864473985735e+00 1.9581148167411893e+00
9.6355588625049032e-03 4.5317087352291558e+00 1.9581148167411893e+00
9.0844931686766186e-03 3.2066735068313190e+00 1.1305182940916647e+00
ITEM: ATOMS id element x y z vx vy vz fx fy fz
1 Si 1.93515 1.07255 0.75344 -0.278725 0.314648 0.223536 -0.0496603 0.971725 0.686796
2 Si 3.89034 4.53773 3.20366 0.278725 -0.314648 -0.223536 0.0496603 -0.971725 -0.686796
ITEM: TIMESTEP
3800
ITEM: NUMBER OF ATOMS
2
ITEM: BOX BOUNDS xy xz yz pp pp pp
2.6289261368606667e-02 7.7980972292440827e+00 1.9429517453063516e+00
2.2767165986720621e-02 4.5098227233554589e+00 1.9429517453063516e+00
2.1465092666441032e-02 3.1942929073335549e+00 1.1217638893421866e+00
ITEM: ATOMS id element x y z vx vy vz fx fy fz
1 Si 1.93427 1.1472 0.809333 0.320768 -4.11913 -2.91174 -0.00648914 -0.940848 -0.664352
2 Si 3.87661 4.44605 3.14203 -0.320768 4.11913 2.91174 0.00648914 0.940848 0.664352
ITEM: TIMESTEP
3900
ITEM: NUMBER OF ATOMS
2
ITEM: BOX BOUNDS xy xz yz pp pp pp
4.7223530396660940e-02 7.7352944327905409e+00 1.9220174815936097e+00
4.0896773018635292e-02 4.4796067116355989e+00 1.9220174815936097e+00
3.8557852264774470e-02 3.1772001477352223e+00 1.1096774846542430e+00
ITEM: ATOMS id element x y z vx vy vz fx fy fz
1 Si 1.9315 1.11894 0.793761 -0.0860289 5.67983 4.01365 0.0910377 0.0454687 0.0310196
2 Si 3.8592 4.4508 3.14967 0.0860289 -5.67983 -4.01365 -0.0910377 -0.0454687 -0.0310196
ITEM: TIMESTEP
4000
ITEM: NUMBER OF ATOMS
2
ITEM: BOX BOUNDS xy xz yz pp pp pp
5.4918129624146023e-02 7.7122106390154688e+00 1.9143228843198172e+00
4.7560490776131621e-02 4.4685005153731066e+00 1.9143228843198172e+00
4.4840466414076234e-02 3.1709175335859197e+00 1.1052350061492469e+00
ITEM: ATOMS id element x y z vx vy vz fx fy fz
1 Si 1.93573 1.10248 0.783685 -0.0595311 -2.23483 -1.57766 -0.0469134 0.655792 0.463661
2 Si 3.84756 4.45862 3.15684 0.0595311 2.23483 1.57766 0.0469134 -0.655792 -0.463661
ITEM: TIMESTEP
4100
ITEM: NUMBER OF ATOMS
2
ITEM: BOX BOUNDS xy xz yz pp pp pp
5.7844265668200862e-02 7.7034322323692201e+00 1.9113967490187218e+00
5.0094598679758663e-02 4.4642770022003946e+00 1.9113967490187218e+00
4.7229646561042060e-02 3.1685283534389534e+00 1.1035456008801607e+00
ITEM: ATOMS id element x y z vx vy vz fx fy fz
1 Si 1.93438 1.1466 0.815475 0.0962542 -0.357407 -0.254035 0.00417345 -0.753541 -0.532201
2 Si 3.84609 4.41121 3.12394 -0.0962542 0.357407 0.254035 -0.00417345 0.753541 0.532201
ITEM: TIMESTEP
4200
ITEM: NUMBER OF ATOMS
2
ITEM: BOX BOUNDS xy xz yz pp pp pp
6.7779071330160631e-02 7.6736278204283295e+00 1.9014619458792565e+00
5.8698391931314195e-02 4.4499373467811365e+00 1.9014619458792565e+00
5.5341381659529079e-02 3.1604166183404652e+00 1.0978097387124581e+00
ITEM: ATOMS id element x y z vx vy vz fx fy fz
1 Si 1.93374 1.11452 0.794896 -0.0750178 2.63895 1.86534 0.0367002 0.416063 0.293366
2 Si 3.83715 4.43214 3.14075 0.0750178 -2.63895 -1.86534 -0.0367002 -0.416063 -0.293366
ITEM: TIMESTEP
4300
ITEM: NUMBER OF ATOMS
2
ITEM: BOX BOUNDS xy xz yz pp pp pp
6.8713475479560651e-02 7.6708246084546330e+00 1.9005275419671070e+00
5.9507609583713567e-02 4.4485886506938037e+00 1.9005275419671070e+00
5.6104319475603036e-02 3.1596536805243884e+00 1.0972702602775244e+00
ITEM: ATOMS id element x y z vx vy vz fx fy fz
1 Si 1.93635 1.10906 0.791201 -0.0349145 -4.09714 -2.89301 -0.0634392 0.613889 0.434242
2 Si 3.83364 4.43654 3.1441 0.0349145 4.09714 2.89301 0.0634392 -0.613889 -0.434242
ITEM: TIMESTEP
4400
ITEM: NUMBER OF ATOMS
2
ITEM: BOX BOUNDS xy xz yz pp pp pp
3.3789263922965447e-02 7.7755972253895669e+00 1.9354517446562765e+00
2.9262358098119095e-02 4.4989974031697946e+00 1.9354517446562765e+00
2.7588819292711019e-02 3.1881691807072809e+00 1.1174337612679213e+00
ITEM: ATOMS id element x y z vx vy vz fx fy fz
1 Si 1.93373 1.16446 0.823102 0.196428 2.25517 1.58806 0.00672302 -1.37295 -0.970102
2 Si 3.86991 4.42037 3.12542 -0.196428 -2.25517 -1.58806 -0.00672302 1.37295 0.970102
ITEM: TIMESTEP
4500
ITEM: NUMBER OF ATOMS
2
ITEM: BOX BOUNDS xy xz yz pp pp pp
2.2925659584994200e-02 7.8081880328868341e+00 1.9463153462359248e+00
1.9854201676048826e-02 4.5146776638732433e+00 1.9463153462359248e+00
1.8718723228144246e-02 3.1970392767718505e+00 1.1237058655493009e+00
ITEM: ATOMS id element x y z vx vy vz fx fy fz
1 Si 1.93242 1.06746 0.752344 -0.203143 1.46538 1.03877 0.0554654 1.24346 0.878033
2 Si 3.8817 4.52957 3.20029 0.203143 -1.46538 -1.03877 -0.0554654 -1.24346 -0.878033
ITEM: TIMESTEP
4600
ITEM: NUMBER OF ATOMS
2
ITEM: BOX BOUNDS xy xz yz pp pp pp
3.4104088797403155e-02 7.7746527509261183e+00 1.9351369198617741e+00
2.9535004410718230e-02 4.4985429926487930e+00 1.9351369198617741e+00
2.7845872733992281e-02 3.1879121272660025e+00 1.1172519970595214e+00
ITEM: ATOMS id element x y z vx vy vz fx fy fz
1 Si 1.93579 1.12826 0.797549 -0.0068803 -2.75622 -1.94657 -0.0459333 -0.355377 -0.250047
2 Si 3.86756 4.45622 3.15085 0.0068803 2.75622 1.94657 0.0459333 0.355377 0.250047
ITEM: TIMESTEP
4700
ITEM: NUMBER OF ATOMS
2
ITEM: BOX BOUNDS xy xz yz pp pp pp
4.2362601969679815e-02 7.7498772156030480e+00 1.9268784087863757e+00
3.6687085922647064e-02 4.4866228567955835e+00 1.9268784087863757e+00
3.4588920704960807e-02 3.1811690792950307e+00 1.1124839427182378e+00
ITEM: ATOMS id element x y z vx vy vz fx fy fz
1 Si 1.93372 1.13111 0.801328 0.122385 1.94179 1.36917 0.0150197 -0.378371 -0.267855
2 Si 3.86167 4.44409 3.14395 -0.122385 -1.94179 -1.36917 -0.0150197 0.378371 0.267855
ITEM: TIMESTEP
4800
ITEM: NUMBER OF ATOMS
2
ITEM: BOX BOUNDS xy xz yz pp pp pp
4.5942251889613019e-02 7.7391382676610281e+00 1.9232987597753313e+00
3.9787153389692298e-02 4.4814560776838421e+00 1.9232987597753313e+00
3.7511692713175081e-02 3.1782463072868152e+00 1.1104172310735418e+00
ITEM: ATOMS id element x y z vx vy vz fx fy fz
1 Si 1.93356 1.09437 0.776118 -0.154831 -0.0581466 -0.0381096 0.0282453 0.795274 0.561465
2 Si 3.85838 4.47681 3.1678 0.154831 0.0581466 0.0381096 -0.0282453 -0.795274 -0.561465
ITEM: TIMESTEP
4900
ITEM: NUMBER OF ATOMS
2
ITEM: BOX BOUNDS xy xz yz pp pp pp
4.7689750047849110e-02 7.7338957740737104e+00 1.9215512620607911e+00
4.1300531041205867e-02 4.4789337815979824e+00 1.9215512620607911e+00
3.8938519027352111e-02 3.1768194809726400e+00 1.1094083126391985e+00
ITEM: ATOMS id element x y z vx vy vz fx fy fz
1 Si 1.93672 1.14053 0.809029 0.0409371 -2.77476 -1.96042 -0.0634463 -0.629934 -0.443349
2 Si 3.85353 4.42869 3.13423 -0.0409371 2.77476 1.96042 0.0634463 0.629934 0.443349
ITEM: TIMESTEP
5000
ITEM: NUMBER OF ATOMS
2
ITEM: BOX BOUNDS xy xz yz pp pp pp
5.0343649139197838e-02 7.7259340781473469e+00 1.9188973636432822e+00
4.3598874850775571e-02 4.4751032085820341e+00 1.9188973636432822e+00
4.1105418626563486e-02 3.1746525813734316e+00 1.1078760834328190e+00
ITEM: ATOMS id element x y z vx vy vz fx fy fz
1 Si 1.9327 1.13115 0.803068 0.263089 4.31853 3.04594 0.0503979 -0.314915 -0.224778
2 Si 3.855 4.43509 3.13918 -0.263089 -4.31853 -3.04594 -0.0503979 0.314915 0.224778
ITEM: TIMESTEP
5100
ITEM: NUMBER OF ATOMS
2
ITEM: BOX BOUNDS xy xz yz pp pp pp
5.2089019751617088e-02 7.7206979671964051e+00 1.9171519934740215e+00
4.5110409993742578e-02 4.4725839833437560e+00 1.9171519934740215e+00
4.2530507806802474e-02 3.1732274921931967e+00 1.1068683933375070e+00
ITEM: ATOMS id element x y z vx vy vz fx fy fz
1 Si 1.93448 1.08267 0.76914 -0.464787 -2.36928 -1.66524 -0.00194278 1.2259 0.865768
2 Si 3.85154 4.4816 3.17245 0.464787 2.36928 1.66524 0.00194278 -1.2259 -0.865768
ITEM: TIMESTEP
5200
ITEM: NUMBER OF ATOMS
2
ITEM: BOX BOUNDS xy xz yz pp pp pp
5.3974283308086998e-02 7.7150421774843503e+00 1.9152667303962290e+00
4.6743095968333703e-02 4.4698628400527740e+00 1.9152667303962290e+00
4.4069819100979901e-02 3.1716881808990185e+00 1.1057799360211134e+00
ITEM: ATOMS id element x y z vx vy vz fx fy fz
1 Si 1.93847 1.16441 0.82717 0.269064 -1.13802 -0.811498 -0.0870343 -1.31826 -0.927628
2 Si 3.84572 4.39775 3.11371 -0.269064 1.13802 0.811498 0.0870343 1.31826 0.927628
ITEM: TIMESTEP
5300
ITEM: NUMBER OF ATOMS
2
ITEM: BOX BOUNDS xy xz yz pp pp pp
5.3313622334105255e-02 7.7170241600708058e+00 1.9159273912024648e+00
4.6170946836994020e-02 4.4708164219383359e+00 1.9159273912024648e+00
4.3530391658391961e-02 3.1722276083416037e+00 1.1061613687753384e+00
ITEM: ATOMS id element x y z vx vy vz fx fy fz
1 Si 1.9299 1.10359 0.784283 0.15005 3.67923 2.59841 0.168128 0.601843 0.421467
2 Si 3.85494 4.45931 3.15684 -0.15005 -3.67923 -2.59841 -0.168128 -0.601843 -0.421467
ITEM: TIMESTEP
5400
ITEM: NUMBER OF ATOMS
2
ITEM: BOX BOUNDS xy xz yz pp pp pp
3.6086307757776430e-02 7.7687060950515923e+00 1.9331547014046946e+00
3.1251656219992083e-02 4.4956819063000060e+00 1.9331547014046946e+00
2.9464347786333889e-02 3.1862936522136569e+00 1.1161075625200068e+00
ITEM: ATOMS id element x y z vx vy vz fx fy fz
1 Si 1.93778 1.10251 0.779762 -0.490106 -3.78635 -2.66246 -0.121685 0.43611 0.30912
2 Si 3.86365 4.47975 3.16789 0.490106 3.78635 2.66246 0.121685 -0.43611 -0.30912
ITEM: TIMESTEP
5500
ITEM: NUMBER OF ATOMS
2
ITEM: BOX BOUNDS xy xz yz pp pp pp
9.7492058586247498e-03 7.8477173873748178e+00 1.9594917966167311e+00
8.4430591225104646e-03 4.5336962347958094e+00 1.9594917966167311e+00
7.9601934891039942e-03 3.2077978065108885e+00 1.1313132939183286e+00
ITEM: ATOMS id element x y z vx vy vz fx fy fz
1 Si 1.93642 1.14649 0.805348 0.583514 1.42951 0.992841 -0.0526477 -0.983734 -0.693125
2 Si 3.89039 4.46534 3.15227 -0.583514 -1.42951 -0.992841 0.0526477 0.983734 0.693125
ITEM: TIMESTEP
5600
ITEM: NUMBER OF ATOMS
2
ITEM: BOX BOUNDS xy xz yz pp pp pp
9.8991271837473114e-03 7.8472676234755827e+00 1.9593418753296752e+00
8.5728947860581120e-03 4.5334798420232278e+00 1.9593418753296752e+00
8.0826037421451620e-03 3.2076753962578466e+00 1.1312267368092963e+00
ITEM: ATOMS id element x y z vx vy vz fx fy fz
1 Si 1.92666 1.07303 0.753734 -0.333746 1.92104 1.36334 0.235543 0.947739 0.66568
2 Si 3.90001 4.53864 3.20383 0.333746 -1.92104 -1.36334 -0.235543 -0.947739 -0.66568
ITEM: TIMESTEP
5700
ITEM: NUMBER OF ATOMS
2
ITEM: BOX BOUNDS xy xz yz pp pp pp
3.5142844823466149e-02 7.7715364833754279e+00 1.9340981640994572e+00
3.0434593430488179e-02 4.4970436776158413e+00 1.9340981640994572e+00
2.8694013503129924e-02 3.1870639864968617e+00 1.1166522710463422e+00
ITEM: ATOMS id element x y z vx vy vz fx fy fz
1 Si 1.9441 1.1271 0.796814 -0.279178 -4.20788 -2.95635 -0.276398 -0.305543 -0.210543
2 Si 3.85824 4.45621 3.15119 0.279178 4.20788 2.95635 0.276398 0.305543 0.210543
ITEM: TIMESTEP
5800
ITEM: NUMBER OF ATOMS
2
ITEM: BOX BOUNDS xy xz yz pp pp pp
4.5689459794779085e-02 7.7398966438171577e+00 1.9235515518059803e+00
3.9568229034895014e-02 4.4818209516084986e+00 1.9235515518059803e+00
3.7305288825868824e-02 3.1784527111741241e+00 1.1105631806434053e+00
ITEM: ATOMS id element x y z vx vy vz fx fy fz
1 Si 1.93241 1.14459 0.811644 1.14484 3.88993 2.71499 0.0483797 -0.766762 -0.545879
2 Si 3.85977 4.42687 3.13237 -1.14484 -3.88993 -2.71499 -0.0483797 0.766762 0.545879
ITEM: TIMESTEP
5900
ITEM: NUMBER OF ATOMS
2
ITEM: BOX BOUNDS xy xz yz pp pp pp
4.6978268096638111e-02 7.7360302195660520e+00 1.9222627438313569e+00
4.0684369656803263e-02 4.4799607172386500e+00 1.9222627438313569e+00
3.8357596429372920e-02 3.1774004035706223e+00 1.1098190868954669e+00
ITEM: ATOMS id element x y z vx vy vz fx fy fz