ITEM: TIMESTEP
0
ITEM: NUMBER OF ATOMS
250
ITEM: BOX BOUNDS xy xz yz pp pp pp
0.0000000000000000e+00 4.1391319000000003e+01 1.0347830000000000e+01
0.0000000000000000e+00 2.3897289000000001e+01 1.0347830000000000e+01
0.0000000000000000e+00 1.6897935000000000e+01 5.9743219999999999e+00
ITEM: ATOMS id element x y z vx vy vz fx fy fz
1 Si 5.28692 1.58649 1.02443 -7.06644 8.55708 -11.6325 -0.903236 -1.34004 -0.265791
2 Si 2.94085 0.734758 0.148034 -3.15897 0.214028 3.59893 0.12821 1.31955 -0.2143
3 Si 33.6086 19.9629 5.85222 -15.2798 3.31523 -0.0847847 0.61308 -0.593715 -0.187182
4 Si 19.7787 19.7454 11.7977 8.66664 -6.80726 -7.32052 11.4188 3.50657 -0.0989787
5 Si 21.4107 21.1213 15.4079 -5.43847 -8.54685 11.6372 -0.819766 -0.137034 -1.98356
6 Si 16.0393 10.4845 14.3032 1.48248 -2.35982 1.76581 1.23364 -0.82898 -0.165149
7 Si 5.39968 6.28596 2.02962 -9.03142 1.27246 -1.41866 -0.393406 -0.626863 0.452396
8 Si 6.20257 6.25606 5.79311 11.3665 -23.7127 -13.7796 0.903969 -0.300246 -1.46153
9 Si 26.9746 9.19825 8.34566 14.4816 4.70091 -13.4265 -2.22789 -0.587213 -0.550785
10 Si 29.6886 9.5294 15.2657 11.4803 -11.9832 -6.29331 1.83023 0.343472 3.64469
11 Si 15.6906 14.0572 12.1446 12.4531 -12.1831 -4.52433 -0.0711298 -1.35101 -0.599907
12 Si 27.6516 9.33073 5.86017 -0.615917 -10.2745 1.58385 0.738536 -0.412364 1.65368
13 Si 9.74275 9.70093 10.0061 -17.7588 -4.61036 0.0782629 -0.0330614 -0.862795 1.10516
14 Si 10.9664 10.4166 11.8951 3.27742 16.7936 -5.51999 -4.26381 2.3794 -2.40948
15 Si 32.7918 10.0649 15.7083 2.05495 -11.2096 -7.45454 -3.04345 -2.16115 2.2648
16 Si 9.41142 7.7685 0.909144 16.3269 15.2478 -3.88507 -0.517141 0.32485 -1.37242
17 Si 8.87448 11.9803 4.04236 5.0807 -4.13059 -12.5185 0.401205 2.67185 0.789458
18 Si 11.1958 12.4007 9.42108 14.6287 0.830323 -15.5959 0.568526 0.69824 0.961092
19 Si 33.317 14.9973 10.9879 -8.61594 1.80172 -6.2285 -0.772994 2.16752 -0.81506
20 Si 20.8896 15.7718 15.8312 8.23379 6.57067 2.66163 0.0878774 2.92108 0.0871302
21 Si 10.2663 13.1223 2.67418 -22.1094 -12.6043 -0.742025 1.04024 0.131505 -0.129396
22 Si 30.0299 16.53 2.01148 8.28872 4.88369 3.71354 1.74959 1.86085 3.33399
23 Si 13.4313 15.518 7.99937 4.02442 15.644 1.15304 -2.11537 1.40912 -0.545426
24 Si 26.556 4.52885 12.6675 12.7192 -8.80215 -11.5441 2.39959 -0.934768 -0.23111
25 Si 17.8803 19.1192 11.7843 -4.79766 -16.672 18.1287 -11.286 -2.41361 -0.389709
26 Si 27.5011 20.6418 12.2269 7.87279 0.919483 -6.16294 -3.07036 1.10061 -0.562993
27 Si 17.8482 19.5902 5.23392 -1.89421 0.501072 -7.76157 0.813724 5.42263 -1.65821
28 Si 16.2513 20.309 6.78556 14.6556 7.28662 -0.660826 -1.76617 0.799994 -0.57958
29 Si 23.3377 19.4258 10.0123 -1.63555 -8.60175 -6.08478 -0.252923 0.984764 0.498646
30 Si 12.5754 5.10041 12.6874 -14.6214 -5.93947 -12.2856 -1.28939 -1.83915 -0.681431
31 Si 15.4828 13.0124 15.9981 3.23819 2.04596 -0.0725886 -1.03249 0.436758 -2.16388
32 Si 11.3632 5.42216 4.42053 -2.47573 1.68569 12.1206 -0.655292 -0.135518 0.265681
33 Si 12.9775 4.89709 9.18168 -1.60486 -8.62525 2.02576 0.0963816 0.172781 -2.39861
34 Si 13.6487 9.00132 7.70798 -1.75266 -6.0852 -1.70032 -0.865885 -2.13102 -0.953152
35 Si 16.4995 7.63523 11.6114 -15.129 10.0275 -5.98663 2.04107 0.414048 -0.561518
36 Si 22.136 12.9389 15.4423 -13.0349 9.83126 -13.944 -2.02891 -3.38722 -5.6801
37 Si 12.3145 7.24186 2.58221 -5.10371 -7.93037 1.64628 -0.192423 0.967386 0.406059
38 Si 12.6527 10.887 7.97655 20.3235 -3.26788 2.8109 -0.65359 4.08871 2.08589
39 Si 13.7316 10.2758 14.33 -11.0435 -5.32814 -8.02981 2.43954 -0.402494 -1.57485
40 Si 18.0315 13.9984 10.7554 -4.49148 5.40041 24.0805 -0.84875 -0.58574 0.634793
41 Si 27.056 16.3602 15.4387 -21.2357 -0.654323 -7.00785 1.20351 -0.469685 -0.618493
42 Si 12.8056 12.7715 3.52092 -13.568 -13.2881 -17.8884 0.232219 -1.36926 0.521433
43 Si 17.9561 17.9624 9.76934 -10.1826 -11.9244 3.16167 0.46356 -0.685208 0.844427
44 Si 19.9952 17.0771 13.7615 -4.91763 -0.343789 0.103918 -0.14574 -0.934419 1.45131
45 Si 19.3915 18.2104 15.7517 4.80456 -18.9605 3.0448 0.464236 -0.689142 -0.97142
46 Si 16.6978 17.0699 1.39435 -1.62017 -5.32874 6.77893 -1.11367 1.5571 -2.02825
47 Si 16.2984 13.8513 5.32318 -12.56 1.07311 2.20847 0.544153 0.671762 -0.646156
48 Si 15.0634 17.2096 7.92642 2.84571 14.3122 10.1829 0.54694 -1.12109 0.822083
49 Si 20.1156 16.6775 9.84708 -3.51157 -0.304747 -11.6845 -1.74353 0.36036 1.35377
50 Si 23.4351 18.7619 13.1456 1.65063 -10.4951 0.647266 1.07186 1.01646 1.64246
51 Si 17.4698 15.0553 3.56105 -5.52058 7.9457 -5.86074 3.32333 0.399643 1.55591
52 Si 11.2531 3.78066 7.22668 -9.5927 -4.54595 14.0946 2.49063 1.55922 5.95236
53 Si 15.7723 3.94498 4.38099 1.91376 5.68473 19.616 -2.02022 1.43132 0.0203311
54 Si 26.8038 20.3198 10.0353 -6.7057 0.94427 7.45798 -0.178436 0.904747 0.575733
55 Si 18.0369 7.46081 15.7368 -7.51503 -0.0884788 -5.62769 -0.258045 1.17631 -0.672642
56 Si 13.1517 5.10964 2.98906 5.32083 18.5299 12.1357 -0.187027 -1.68532 2.09204
57 Si 10.4933 7.6536 4.62763 -9.6774 -14.4934 5.65777 -1.30131 -1.94337 -1.60904
58 Si 15.7593 8.34554 7.57519 -4.36562 20.8845 -2.41077 2.86794 0.0805609 -0.199183
59 Si 18.6726 6.06485 10.7176 -5.7721 0.852249 13.8294 -0.508677 1.21285 2.21723
60 Si 21.3049 12.1643 11.9781 10.5638 4.32239 -3.68153 0.809712 0.535859 0.508163
61 Si 24.1167 13.8583 13.9577 15.9123 -1.7296 0.869569 -2.5362 -2.35095 -0.854723
62 Si 15.9399 12.0311 3.80347 5.77525 1.77065 -3.4625 -1.35152 -0.556226 1.51827
63 Si 17.5124 10.0098 6.39762 0.480991 -21.6673 -12.4619 2.14968 -0.896955 -0.218013
64 Si 17.1607 9.06214 9.48187 -13.4457 2.59855 2.08472 -4.41285 -0.793835 2.46457
65 Si 21.4561 14.1269 10.9854 1.36459 8.66033 6.81785 7.04298 -1.91064 -3.15304
66 Si 25.6906 21.2986 15.3424 -13.48 0.731353 -3.37335 1.23668 0.100441 1.52131
67 Si 17.0772 11.4293 1.98154 9.02877 3.6132 7.45747 0.691201 0.259684 -1.82164
68 Si 19.2862 13.3859 6.72784 -2.52312 0.238455 5.22464 -0.401363 0.8411 0.471135
69 Si 22.5582 14.4282 8.32257 9.88377 0.414569 26.4865 3.40007 -1.88025 -0.417942
70 Si 24.7 11.5969 9.86016 -9.90522 10.8888 -20.6134 0.995456 1.58621 1.81526
71 Si 15.8955 14.243 0.448974 9.25489 17.2309 -8.7397 1.51421 -1.21444 -0.436218
72 Si 19.0925 15.4887 5.34049 3.45327 6.89708 5.77811 -0.679584 -1.30063 -0.346472
73 Si 22.8202 17.7063 6.96784 -0.189451 5.01661 -0.675491 0.697037 -1.45421 -0.489478
74 Si 25.1682 15.6812 14.3786 -7.78453 -14.8101 -8.35226 1.03102 2.37502 0.548184
75 Si 29.4015 17.9303 11.8518 -13.5673 -7.81576 7.03946 -1.84265 0.360209 -1.5831
76 Si 19.6677 16.4768 3.29045 2.52867 6.88532 4.52373 0.323837 -1.06683 -0.136695
77 Si 29.6386 18.7163 2.37575 -0.199839 -9.71459 -0.452888 3.56621 6.53216 -5.04377
78 Si 17.8771 4.72288 5.24206 -1.61465 -3.44638 -14.3375 0.637442 2.74164 1.773
79 Si 19.5934 4.62474 7.41669 9.53058 9.73583 -3.67836 -1.68078 -1.3156 -1.83001
80 Si 13.2521 0.748059 0.057558 -12.8138 5.5017 11.5275 0.191519 -3.33846 -1.59894
81 Si 26.8019 11.5452 14.3338 13.5848 0.749802 -5.00913 -1.2601 -2.08595 1.26068
82 Si 19.981 8.13258 6.48273 8.36224 6.71475 -10.395 -1.51722 -0.104726 -0.801472
83 Si 20.4044 5.25748 9.35231 -4.75665 -11.6376 6.30689 -0.690803 1.22502 1.46084
84 Si 19.4577 8.15137 13.6992 -12.0895 3.14225 -8.5203 0.475609 -0.890126 1.18494
85 Si 21.5331 9.0461 12.6859 -7.98809 -2.09844 -21.1531 1.41786 -0.90013 2.20728
86 Si 30.6403 13.8476 16.4037 6.75301 7.34925 -0.738515 0.0832524 -1.61838 3.13811
87 Si 20.0516 9.82552 4.65304 9.16095 -9.24725 1.115 -1.89303 0.736325 1.86194
88 Si 20.4168 12.2341 4.85375 11.9591 -8.12802 -2.49721 -0.558388 -0.834676 0.986127
89 Si 24.8317 12.9732 5.45358 -2.66801 -9.1149 -8.88095 -0.109592 -0.291312 -1.15182
90 Si 26.8349 14.8636 11.2421 6.06039 2.02849 -1.55976 0.348717 -0.625144 2.73637
91 Si 25.3468 14.1236 1.3059 -2.3266 3.03857 1.866 5.84588 -0.401583 -2.22149
92 Si 22.5603 12.8177 4.28922 10.6471 15.602 0.779652 0.40878 -0.155659 -0.0478032
93 Si 21.6023 14.7231 3.24767 -7.95332 10.2154 19.5825 0.900265 1.10679 1.32469
94 Si 26.3501 15.3035 7.618 3.86591 -3.26471 -11.9474 1.70356 -2.35151 -1.94653
95 Si 28.404 13.9895 15.2819 16.6113 14.9212 9.20159 1.18372 1.88284 0.930294
96 Si 21.5544 17.8034 0.835089 -10.13 -0.896712 -19.9242 -0.928879 -0.3333 -0.498413
97 Si 25.1757 16.6611 1.86618 -19.1159 1.6968 9.12978 -2.40194 -2.5214 -0.221361
98 Si 16.1168 2.32349 6.27851 7.88746 -0.965845 9.60645 1.9061 0.10419 1.95235
99 Si 25.6111 15.6937 9.59838 -16.6256 -5.18154 -1.19987 -1.92794 1.0258 0.745323
100 Si 29.2592 19.813 13.0662 -10.4721 5.16066 11.0293 4.51458 -0.0607464 0.812607
101 Si 25.6487 7.81132 16.718 -1.47652 1.04863 1.28053 -0.769865 1.86892 0.140608
102 Si 11.4784 16.9952 0.811281 7.29834 6.3439 -7.38289 -1.63305 0.335921 -0.00934819
103 Si 20.4593 7.89905 8.74251 -6.71458 -18.4342 4.94961 -0.551492 -1.76184 1.06411
104 Si 23.152 9.50962 14.6184 -1.59352 8.54402 10.4542 0.0377696 2.60891 0.84841
105 Si 25.4666 6.86358 11.3907 -7.54136 12.6094 22.6839 1.12937 1.65157 2.15576
106 Si 22.3394 3.06807 1.65985 -10.5776 -10.3189 6.12195 -2.65656 -1.74148 -0.820379
107 Si 22.4424 4.60193 3.3261 8.8396 12.3211 -4.12047 0.917173 0.490166 1.88379
108 Si 24.0006 6.26679 4.34413 -3.35464 -3.60736 10.6147 0.148876 -5.62254 1.37833
109 Si 23.9703 7.15547 8.91248 -2.07941 8.7503 -10.7039 -0.807742 -0.331817 -1.44857
110 Si 26.2434 9.12049 14.3086 -7.70944 14.763 3.60513 -0.359788 -1.24356 0.39029
111 Si 24.8333 7.96712 0.941493 4.8285 4.32042 -5.00531 -0.814316 0.228434 0.485455
112 Si 22.8237 8.45115 2.19685 -0.662344 -4.7832 -9.47861 -0.236396 1.11193 0.48076
113 Si 27.8495 11.1722 7.72619 10.378 7.13822 12.817 1.09024 0.639349 -1.68336
114 Si 28.5987 7.75623 8.91457 6.25369 8.09438 -12.6929 1.19072 -0.495465 0.0699007
115 Si 33.2819 15.5236 16.3391 -15.0429 -10.2382 2.98135 -0.449242 -1.44242 -2.09009
116 Si 23.0452 11.4476 0.581808 9.99943 -7.41195 -10.4008 -0.641729 1.71658 0.933642
117 Si 7.42547 8.82478 1.13035 -4.53355 -22.3299 4.12044 -1.09284 0.0974478 -0.732251
118 Si 26.9454 13.7861 4.47352 -3.22072 -6.47448 10.829 -2.11976 -0.802422 -1.14879
119 Si 32.6969 13.8013 13.6894 -6.34357 -6.71132 8.21529 -0.34204 -0.369625 -0.057138
120 Si 33.0778 18.8224 15.6264 1.90513 -10.7484 -19.4425 -0.246725 0.699521 -0.523052
121 Si 27.8513 7.14317 16.7457 2.28441 11.4524 18.0867 -0.0751626 1.15425 0.859534
122 Si 28.1117 18.633 6.15254 24.4297 -9.79372 0.522245 -0.11817 -0.0990996 -0.265813
123 Si 28.9422 19.9879 9.18032 7.24834 7.28817 -16.4781 1.41501 -0.901437 0.679526
124 Si 31.4944 17.3725 12.0112 1.78492 13.0989 3.19716 2.94556 0.577264 0.019574
125 Si 22.6779 7.31913 14.8642 4.72588 -6.19252 1.1509 1.82759 -1.08391 0.996209
126 Si 29.3639 6.1053 15.2262 1.48908 -4.85169 -12.7542 1.12449 -1.1195 2.0343
127 Si 12.7594 16.6955 5.52226 -1.80743 -1.60561 10.0232 -0.717096 2.14014 4.66813
128 Si 31.9091 18.709 6.87102 -0.580872 -3.04986 3.86333 1.96789 -2.48499 -1.4284
129 Si 26.6543 4.40374 9.82819 2.97057 -0.686992 -5.59841 0.168007 -0.12302 2.63031
130 Si 19.4076 21.0304 13.874 -12.6343 -6.55688 10.5571 0.844513 -0.885522 -0.179228
131 Si 3.46019 3.47145 0.397886 1.63701 -14.4676 -3.45442 1.97988 -0.810297 0.42792
132 Si 4.2729 4.30664 2.8228 -4.77251 0.103017 0.325699 -0.248157 1.12224 0.0175402
133 Si 7.03489 6.21152 3.59861 6.47461 -11.4782 1.01563 2.12962 -0.951205 0.501311
134 Si 8.42971 7.10685 6.70962 14.7303 -10.376 10.0942 -0.422375 1.24436 -2.01119
135 Si 30.8821 7.57974 16.7893 -11.074 17.6572 2.82244 -1.49205 -0.200381 2.51483
136 Si 14.3879 12.3521 13.9808 8.32317 12.7595 -2.2302 2.37173 2.81379 0.313178
137 Si 26.4159 8.04779 3.78775 5.13932 0.407242 8.4924 -0.385312 1.1267 1.12329
138 Si 25.2502 12.208 7.75509 -8.76303 6.31672 -3.14608 1.38235 -1.84991 -0.0909133
139 Si 29.6998 11.9286 10.2465 -5.2966 -1.10687 13.866 3.05416 -1.23676 1.42541
140 Si 11.5176 8.03031 14.1778 -5.27762 -1.52524 4.46537 -0.736708 -0.284734 2.71944
141 Si 17.7703 13.0473 16.1943 -3.85593 6.51759 12.9573 2.10398 0.796367 1.20382
142 Si 8.08239 10.274 2.88089 2.92071 14.7885 -4.89204 -0.634608 -1.75086 -1.20819
143 Si 9.51466 10.0945 7.78936 -3.97013 1.33562 9.87637 -1.17268 1.11736 -0.349898
144 Si 12.5569 12.1042 11.54 4.98166 -7.70684 6.57475 -1.10982 -0.601575 -1.85879
145 Si 34.4571 17.569 14.3248 -11.1839 5.98963 -3.36059 0.154188 -1.94309 0.0213003
146 Si 9.0375 10.5593 0.638803 21.02 17.6309 1.75383 0.549992 -1.32179 -0.141599
147 Si 29.6263 14.7488 3.75081 3.56252 -3.90688 -4.11901 2.67335 -0.680608 0.433926
148 Si 31.4618 13.6574 11.6204 14.7526 -1.4049 -19.1718 0.164814 -0.910996 -1.66231
149 Si 34.0592 17.0262 11.9649 6.0405 8.63356 10.7887 -0.0712465 -0.0853087 0.440344
150 Si 36.5023 20.5238 11.349 3.46225 -1.36461 -8.33045 1.28052 -0.281424 0.204662
151 Si 23.949 21.1891 13.9045 -11.8556 -7.62529 -12.5245 -2.53663 -1.18042 -0.881238
152 Si 17.4763 17.5449 5.77088 -2.42481 -6.58819 3.18867 -1.92215 -3.45019 -1.15109
153 Si 24.3758 3.77855 6.95923 18.4789 0.0868066 -2.55997 1.2683 -0.431737 -1.03738
154 Si 21.1998 18.6605 9.79667 3.34006 -6.67987 -1.29478 -1.64379 0.210888 -0.354697
155 Si 10.2776 5.10055 13.8362 -7.4482 4.64112 -2.49488 1.1589 -0.797996 -0.159027
156 Si 16.2226 9.25551 16.3806 -3.86206 4.65315 -2.65265 0.816167 -0.526698 -0.465001
157 Si 8.294 3.94878 4.27871 -14.1976 -7.55349 -4.61223 -0.796917 -1.56084 0.847478
158 Si 20.3851 20.8902 9.13674 12.9416 -7.94794 3.61391 0.0822859 -0.955235 0.0933512
159 Si 22.1369 21.4801 10.503 0.825677 1.63639 21.1135 0.626 0.574374 1.76019
160 Si 13.5773 7.00325 13.1965 -4.8769 15.4974 -4.77139 0.25295 1.92776 0.697575
161 Si 19.7363 14.0586 15.0813 -1.75179 -11.7711 8.52942 0.206771 -1.56796 -0.889822
162 Si 13.7515 5.84211 1.03419 16.8138 -5.9061 -14.8243 -1.68079 -0.642335 -3.09911
163 Si 11.8867 8.80631 5.83711 -1.11449 1.23711 11.6378 0.689804 -0.296561 1.3241
164 Si 12.6465 9.24782 12.7036 0.853301 3.73411 17.9575 2.56186 -2.88513 -1.84158
165 Si 17.7395 9.3922 12.8516 2.83496 4.66222 -13.2887 -1.51409 -0.0617706 -1.03618
166 Si 12.471 8.01053 0.237012 -1.78375 12.2573 3.43897 1.64901 3.28999 5.83503
167 Si 13.3286 11.5071 5.72346 14.9938 6.02414 14.6702 1.79279 1.9224 -1.33861
168 Si 11.1775 11.0006 6.20264 -8.97428 14.1625 -3.83411 -2.05154 -0.614621 0.261881
169 Si 14.1239 13.4298 10.3491 11.0874 -8.43234 -6.40485 1.63564 -0.362673 0.677402
170 Si 19.9694 14.5986 12.3414 17.9529 10.254 3.94588 -5.98151 0.744281 5.86181
171 Si 16.0135 9.75294 0.596235 12.073 2.63049 2.22766 0.511655 -0.272231 1.73081
172 Si 14.411 15.9487 0.646199 16.1494 22.275 -6.32153 1.33761 -1.07927 0.614531
173 Si 14.4987 15.282 6.09583 -4.01785 16.2806 -1.25659 1.16529 -0.17817 -1.31216
174 Si 14.7422 18.4147 6.09082 -1.60901 -7.78227 3.77132 -0.394103 1.38555 -1.2802
175 Si 21.1072 19.1322 14.0126 10.5788 10.665 31.7536 -0.473665 0.530699 -0.784938
176 Si 18.2712 15.5945 0.126152 -3.77129 -3.95385 15.7165 -1.48235 0.767828 0.537877
177 Si 5.69571 4.00489 4.7782 -4.03125 1.58599 1.31904 0.724239 -0.789927 1.68866
178 Si 23.1865 19.9014 7.48533 0.569435 -8.27747 11.8347 -0.9813 1.57023 0.091174
179 Si 25.1773 19.4778 8.52358 -0.646402 3.51112 1.59404 1.69256 0.13964 0.068379
180 Si 13.6827 6.46654 10.781 -11.7475 1.28465 0.516213 -0.0161742 -0.853282 1.03831
181 Si 10.4383 3.13683 5.36731 -9.47087 10.7476 0.745976 -1.48039 -1.80914 -3.92622
182 Si 13.1139 7.10114 4.99315 4.74397 4.84549 3.13435 0.945327 -0.810912 -0.375875
183 Si 16.5547 8.20664 5.29434 3.90509 -1.1841 -13.7374 -0.170602 -0.811071 -0.646027
184 Si 17.7515 5.01116 8.92365 7.29861 12.2523 -3.50107 1.3031 -0.985737 -1.14811
185 Si 29.9916 23.653 16.2083 11.9767 6.17612 -17.8162 -1.12457 1.21539 -0.144572
186 Si 23.4153 13.1636 11.8369 -2.06292 -3.45439 1.93081 -0.798353 0.415228 -0.0508397
187 Si 15.2655 7.3518 0.967975 3.50623 16.591 -6.68564 2.34295 3.22281 1.80371
188 Si 13.9857 10.2314 3.59883 -1.62285 -8.3139 11.3115 -0.294775 0.321612 0.978691
189 Si 18.3867 11.3053 11.4093 -18.232 -21.7374 0.350832 -2.51544 0.145822 -0.396037
190 Si 19.9598 11.8889 9.97086 -17.1514 2.99217 -5.28423 0.588205 -0.132139 -0.0977252
191 Si 24.3803 12.0907 15.3011 -5.02264 -14.534 -18.5186 0.229832 -2.76287 -1.08036
192 Si 14.5666 11.5721 1.8546 17.6032 -9.57091 -8.69685 -0.0380953 0.337674 -0.59096
193 Si 17.1951 16.111 8.40338 -0.880172 -8.68432 2.32066 -0.867291 -0.416291 0.953417
194 Si 17.072 13.467 8.33917 -1.69999 19.473 -9.88631 1.69408 0.11566 1.96518
195 Si 22.8594 11.8736 8.62077 14.6226 -2.68438 -16.0246 -0.744151 4.96214 -0.893071
196 Si 25.6556 23.529 16.1979 2.84355 9.64481 -1.49663 0.993945 1.22052 0.358441
197 Si 15.4339 14.2896 3.27284 -6.31528 -1.69157 3.02497 -2.30754 -0.908266 -1.7211
198 Si 18.9763 16.8141 7.16378 7.9486 -1.14731 22.2531 1.89248 0.0742698 -0.513644
199 Si 20.4607 15.0402 8.22894 4.57885 -7.60322 -18.4735 -3.68948 0.502381 -2.37786
200 Si 25.4315 17.9228 14.6443 8.26658 -4.93395 -8.68103 -1.24575 1.37019 -0.726633
201 Si 23.5246 18.455 4.68474 -6.31586 1.96101 -7.03184 -0.590368 -3.68143 -0.870828
202 Si 23.0239 15.947 5.26241 -4.22357 16.9188 -33.3926 -3.06393 3.22676 -4.30643
203 Si 14.1647 2.32047 5.40271 3.97406 -18.639 -4.48773 -2.12525 2.03443 0.097265
204 Si 15.4423 4.59801 10.8941 -3.93705 -18.1557 22.405 -0.796098 1.16456 -1.56062
205 Si 30.3484 21.6945 14.1567 12.2826 0.288749 3.6015 0.278342 0.322925 0.323896
206 Si 12.7858 2.87411 0.306644 -0.706432 -4.70372 -2.08704 -0.11331 2.07275 -3.74803
207 Si 14.9525 7.81953 3.40092 1.77294 -21.7917 10.2314 -0.959461 0.699152 -0.0767328
208 Si 18.4758 6.8812 4.65132 -11.1216 13.1316 -2.60771 -0.811183 0.645775 1.93713
209 Si 19.4899 5.83408 13.0263 6.11068 9.24203 -14.7877 -1.00901 -0.335383 -0.816577
210 Si 23.5774 8.09005 11.1336 -4.30972 1.96366 -0.83824 -0.369673 -0.311965 -0.094809
211 Si 25.6599 10.7664 12.5445 -9.54749 -11.7101 0.892078 -0.372042 0.565647 -1.58894
212 Si 18.9408 7.51806 2.57743 7.02743 6.87519 -8.70774 0.839914 0.832091 -2.48805
213 Si 21.572 9.74321 6.47084 10.411 4.12042 -9.15036 1.12231 1.28487 -2.74614
214 Si 18.8849 9.74086 8.48411 -3.94415 -0.136921 -1.97579 2.53581 1.12217 -2.88995
215 Si 21.3697 10.0579 8.65047 2.46886 1.84344 5.10068 0.410724 -0.241016 2.35291
216 Si 17.51 7.01642 0.683922 -9.29388 21.0377 2.73031 2.12601 2.17739 -0.0171941
217 Si 18.6631 9.76116 1.45662 -5.81464 -1.87227 -0.238449 -1.81477 -3.215 -0.383863
218 Si 16.5722 11.5213 9.86613 -7.11226 -12.0532 12.4571 0.356586 -0.632118 -0.220298
219 Si 24.2175 14.866 6.6132 2.53128 0.818218 -5.1533 1.86393 -1.13318 3.48387
220 Si 26.9064 13.4899 13.1993 -5.05397 2.55017 -1.61086 -0.0204139 -0.283671 -0.352898
221 Si 30.9614 21.7688 16.7378 0.0891602 16.1339 -0.500087 0.977777 -1.87947 -0.0951063
222 Si 23.4259 14.6771 1.80462 -2.91105 -8.42725 3.9111 -4.60801 3.69326 1.58227
223 Si 21.3491 18.5077 5.46302 -2.80678 7.50416 10.9288 -2.20192 2.83848 -0.874934
224 Si 28.1392 14.9202 9.47336 12.636 -0.395872 9.3888 -0.0325799 0.254486 -1.76858
225 Si 30.9396 19.6945 10.7676 5.92234 5.29016 -1.67567 -2.58936 -1.50726 1.85502
226 Si 28.3535 7.93337 14.5422 -3.07653 3.2233 0.312635 -2.36042 0.43146 -1.48695
227 Si 9.34722 15.2202 0.358068 16.8121 -12.9481 -4.59959 0.208131 -2.57141 -3.8907
228 Si 29.8409 19.9861 7.01448 -4.99738 -1.01976 -5.75003 -0.0961195 0.665802 0.503086
229 Si 16.9299 5.17014 12.5884 -0.857997 4.42103 -9.48135 1.1298 0.801405 -0.629329
230 Si 24.8741 4.71536 11.3285 3.54017 -12.8456 13.6836 -2.68591 -0.740509 -1.43823
231 Si 18.7785 3.39932 1.04651 -0.0251538 1.99802 -0.0651301 0.989847 -5.27764 -1.99355
232 Si 11.9988 18.5161 2.27257 -2.1838 -14.0725 -3.57478 -2.13987 2.95631 0.632179
233 Si 22.5226 4.84965 5.90678 -5.44801 -4.23925 24.0326 0.856396 0.58947 -1.29511
234 Si 26.3344 6.99631 7.82669 -1.30292 -0.323763 -11.7678 -1.63538 0.48691 2.97725
235 Si 25.3994 6.79911 13.8559 3.74622 -2.69859 5.89239 -1.95889 0.525504 -1.4705
236 Si 22.5604 6.83595 0.536651 -1.20628 -6.9438 17.0932 -1.24404 0.430835 -0.500778
237 Si 21.3627 6.62423 2.78028 11.9928 -8.05641 -9.8633 -1.31612 0.90747 -1.8836
238 Si 23.6362 8.34401 4.43821 -1.91718 -1.27465 2.62269 0.0357399 2.75275 0.585791
239 Si 23.6326 9.08498 7.5874 1.84102 -6.84638 -3.12963 -1.49111 -2.08974 -4.57708
240 Si 24.5469 9.47068 9.40684 -0.473166 -1.47213 3.79787 3.16563 -2.48465 4.10946
241 Si 31.5882 17.0912 15.7123 -1.02532 -1.03437 7.74753 1.06272 -1.71696 1.04636
242 Si 23.6825 10.3529 3.37912 -9.61795 1.47758 -0.781453 0.553364 1.72995 -1.22656
243 Si 25.6759 12.396 2.81201 -7.5881 0.359485 6.71883 -0.278772 -0.946577 2.82269
244 Si 26.3814 17.4953 7.98759 -10.6778 2.75225 12.5159 1.55806 1.58404 0.54861
245 Si 30.8592 14.8247 14.4515 -22.15 -1.83985 -8.80649 -0.550249 2.45801 -1.36019
246 Si 26.8512 15.2822 2.58684 2.18623 -15.1842 -21.4143 -0.0992374 -0.247049 0.22946
247 Si 28.8757 13.7134 1.84172 -10.992 5.67388 13.2958 -1.20717 -1.85128 -0.359267
248 Si 17.5737 2.77899 4.35531 -5.91788 19.1019 3.22456 1.66996 -4.70412 -0.909481
249 Si 28.4391 17.1991 9.50345 14.5097 1.27414 1.97495 -0.232643 1.19801 -0.153835
250 Si 33.1322 18.8859 12.987 2.26547 -6.85986 -9.24174 -1.15994 0.727072 0.107908
ITEM: TIMESTEP
100
ITEM: NUMBER OF ATOMS
250
ITEM: BOX BOUNDS xy xz yz pp pp pp
-1.3952422298767156e-01 4.1809891682446441e+01 1.0487354229729382e+01
-1.2083152531207794e-01 2.4098674871025622e+01 1.0487354229729382e+01
-1.1392105228305419e-01 1.7011856052283051e+01 6.0548763457135717e+00
ITEM: ATOMS id element x y z vx vy vz fx fy fz
1 Si 4.7587 1.7077 0.204846 -8.81622 3.40138 -9.606 0.0526029 -1.65319 0.836475
2 Si 2.55221 0.850682 0.0191264 -4.9077 8.0154 6.51275 -0.102288 -1.11177 -0.695082
3 Si 23.2277 2.44207 5.98454 -2.28836 13.9318 6.85843 1.45375 -1.44172 0.582939
4 Si 20.1577 18.7715 12.1066 16.0715 -16.4545 5.06532 -0.972334 0.303173 1.2753
5 Si 21.7097 22.2153 15.1816 -11.2489 6.30336 2.63559 -1.47695 -1.49506 1.37564
6 Si 16.1393 10.6241 14.4183 -10.7212 2.01463 2.07547 -0.510714 -0.355913 -0.72365
7 Si 5.5209 6.87182 3.17522 -7.28424 9.27625 8.24145 -2.4502 -0.810824 -0.527064
8 Si 6.71429 5.61407 5.58143 11.0905 -10.1446 -4.36245 1.19371 1.36012 1.56775
9 Si 27.7114 8.72705 7.96013 6.24717 0.349511 7.48539 -1.00945 0.342329 -0.455275
10 Si 30.8784 9.59187 16.4042 24.6536 7.81652 8.10646 1.84975 -1.01687 -3.79767
11 Si 16.1069 13.4532 12.4869 -3.80462 3.73226 17.5187 0.0489228 -0.460449 -0.0448714
12 Si 7.73853 8.76785 5.08198 -1.71432 -28.6865 -15.0105 -1.0659 1.94375 1.99737
13 Si 29.5872 10.1969 10.5403 -9.70827 16.4262 -1.81245 0.653665 0.184019 0.0970056
14 Si 31.3749 10.455 12.5293 10.5183 4.94295 12.005 0.397489 1.31321 -0.700722
15 Si 11.8401 9.97065 14.8444 -11.3226 3.04651 -12.5122 -0.713207 0.493738 -0.552143
16 Si 20.9286 15.2556 16.8199 6.90679 7.35324 -6.45883 -0.505181 -0.0816666 0.247112
17 Si 29.1336 12.06 3.95451 -10.3088 -1.72581 -4.48323 0.424561 0.39157 -1.54462
18 Si 11.587 12.2286 9.53658 11.789 -4.11901 3.20232 1.26505 -0.0697541 -1.49668
19 Si 13.4423 15.6208 10.5746 -8.59446 7.76916 7.96242 -0.349018 -3.03436 -2.91406
20 Si 21.8446 16.4205 15.1409 9.59163 3.43606 -20.4243 -0.900378 1.14908 -1.07846
21 Si 12.01 13.0477 1.91221 30.8723 -3.30569 5.44741 -0.209085 -1.72875 0.094735
22 Si 10.024 15.6169 1.94579 -12.1765 -3.56875 5.12673 -0.29352 1.46981 0.866262
23 Si 34.1225 17.043 8.45312 -4.62857 12.5017 2.33956 1.62897 0.597283 1.18375
24 Si 27.4965 4.95145 12.1004 -1.89375 3.29458 -8.15389 -0.643143 -0.80447 -1.20778
25 Si 17.5531 18.9724 12.3729 -14.8631 -7.77054 -2.96865 2.73015 -4.10401 0.696703
26 Si 27.8394 21.5755 12.6227 -9.7793 10.993 -6.56178 -1.14036 1.25135 0.475448
27 Si 17.6199 19.4525 4.4096 5.49788 -10.7927 -8.97455 1.85485 -5.03396 1.18865
28 Si 17.0504 20.2075 6.57499 -2.44961 -8.71335 -4.73344 0.0198218 0.0526622 0.119022
29 Si 23.5701 18.7578 9.53128 -15.772 -8.5942 -14.4156 -1.2128 1.15748 -0.0863095
30 Si 11.5781 5.02522 13.2086 -9.05663 4.19804 2.76847 0.789065 0.972221 -2.19043
31 Si 16.0853 13.654 16.1293 7.75571 4.65221 2.43603 0.288403 -0.47098 0.280284
32 Si 11.8257 5.62098 5.59213 -2.85417 -7.6455 8.93893 -0.985643 -2.32667 -1.74333
33 Si 12.9951 4.46871 9.03249 8.96874 4.98794 -4.76001 -0.421292 -0.828852 0.682123
34 Si 13.5597 8.5877 7.53052 -0.471592 5.53584 15.1846 -1.45039 0.179948 1.97993
35 Si 15.9015 7.43836 11.0641 5.66457 -4.35569 -6.61383 0.229221 -0.94278 -0.661107
36 Si 22.4239 13.5642 15.2614 -7.72208 -0.462667 12.6529 -0.947187 -0.220494 1.30672
37 Si 11.602 7.49836 2.439 -3.43448 15.5519 9.38842 -1.25127 1.28868 0.458098
38 Si 13.2529 11.0007 8.0062 -5.92905 2.17777 3.90546 -1.25739 1.78725 -0.223331
39 Si 13.6514 10.4053 13.5331 4.67142 -4.25183 -5.32659 1.76222 1.7113 2.44188
40 Si 18.2931 14.409 11.9547 -17.7516 13.8039 1.59518 -0.415685 0.229458 -0.889893
41 Si 27.1034 16.2165 14.9366 -2.09761 -4.53246 -3.10073 -0.565215 0.355825 0.12036
42 Si 12.6547 10.6556 2.51187 6.78075 -21.9853 2.28942 0.374923 -0.113645 1.29908
43 Si 17.6856 16.7645 10.8912 5.11161 -16.9694 6.96808 0.427058 -0.763102 -0.313008
44 Si 19.8881 16.9954 13.7078 -1.69444 -6.05326 0.0657486 1.11298 -0.579647 -1.20011
45 Si 19.3488 17.3142 15.8466 3.1342 -20.5207 -5.78155 1.71151 -0.0270254 0.579931
46 Si 17.1631 17.1507 1.44959 16.7775 -1.83844 -10.6248 0.256294 0.493278 -0.634913
47 Si 15.4402 13.855 5.12832 -26.4985 -14.6296 9.17159 -0.682299 0.240809 -0.778164
48 Si 15.3903 18.3166 8.13773 5.94166 13.2347 -6.17381 -1.41326 0.713405 -0.520016
49 Si 19.9607 16.2151 9.7789 12.3014 1.75962 1.48051 -2.41617 1.00756 3.07739
50 Si 23.4656 18.5545 14.0996 8.21357 6.03035 9.12718 -0.109743 1.11114 0.246051
51 Si 16.9915 15.7593 4.00807 -6.66385 8.99741 6.79404 -0.562408 -1.35784 -2.33781
52 Si 11.0323 3.32614 8.56968 -8.33488 -15.2954 20.8812 -0.917066 0.175587 -2.61823
53 Si 16.1526 3.8765 6.53364 5.34853 -5.36445 10.472 0.688706 -1.04895 -1.26256
54 Si 27.5448 21.3561 10.3809 -4.25169 11.9957 11.9683 -1.05061 -0.357586 -0.834794
55 Si 17.7154 7.70592 14.7345 -10.8727 11.9657 -16.1357 -0.897979 -0.034791 -0.5518
56 Si 12.7741 5.75663 3.30074 9.86348 3.11747 -2.46499 2.48407 -0.588545 2.16016
57 Si 10.0982 6.90642 4.58717 -1.41395 -7.60945 2.93045 4.47181 0.129627 -1.07001
58 Si 15.4204 9.33499 6.70535 -2.72422 -3.81136 -9.59854 3.31044 0.348602 -1.33491
59 Si 18.1585 6.8517 10.0993 3.52502 3.70621 -8.41083 -2.91195 3.05328 1.44248
60 Si 21.2116 12.9238 10.7539 -9.05749 10.7374 -14.2421 0.260599 1.33644 1.31737
61 Si 24.2846 13.0133 13.7512 -3.78433 -5.25492 -19.6427 -1.03147 0.607071 -0.797965
62 Si 16.5811 12.1335 4.14113 12.7056 5.1374 2.72712 -1.10529 -0.269717 -0.638999
63 Si 18.6634 10.1267 5.85359 -11.4524 5.31538 3.57083 -2.29318 -0.372787 0.835054
64 Si 15.6972 9.1221 9.17242 -6.7592 1.00292 -11.2174 0.427415 1.32228 -0.461589
65 Si 22.3272 14.719 12.0927 13.5343 0.690277 13.7307 2.16888 -0.571384 -1.21054
66 Si 25.6374 22.3978 15.4096 6.34156 -1.57354 -5.30516 -0.383115 -2.56429 -0.239895
67 Si 17.5793 11.9808 1.96124 -5.69606 -8.35207 -0.789154 -0.0895216 0.502861 0.86439
68 Si 19.1787 13.5696 7.44729 4.61266 12.4965 12.5826 2.47459 -1.39994 -4.73995
69 Si 23.2689 15.1137 7.61009 -8.09453 10.8346 -30.3471 -0.682594 -1.38009 2.62008
70 Si 24.8821 11.5838 9.27733 8.66766 -7.89077 15.1644 -0.539699 0.232147 4.18448
71 Si 27.3772 21.474 16.9274 11.8231 26.526 3.0698 0.653791 -0.418676 -0.00365903
72 Si 18.8872 15.2118 5.38767 -3.25289 -10.5283 -6.11439 -0.318935 -1.53697 2.14621
73 Si 22.4054 18.229 5.84436 -14.0922 17.8509 -4.61662 0.423509 1.55822 0.419197
74 Si 25.1584 15.6126 13.8732 4.78041 3.34666 5.26108 -2.00403 3.19347 1.62855
75 Si 29.4756 18.4107 11.8062 5.72814 13.0146 -8.08707 -3.37193 -0.333156 -0.126571
76 Si 19.3501 16.2823 3.51595 2.57581 -11.7649 6.68569 1.62944 1.06658 -1.23751
77 Si 19.7385 1.60756 1.99176 12.1095 -26.9103 -0.365641 2.33599 -4.21621 0.456296
78 Si 18.195 4.65345 5.18735 6.62431 15.8983 -0.909288 -0.805423 -1.78238 -0.707993
79 Si 19.7107 4.77838 6.89938 7.06443 2.02058 -3.99162 1.45627 -0.735798 -1.15591
80 Si 12.5047 0.317141 0.133654 -9.29134 -11.7372 -0.2574 0.870951 -1.15261 0.998306
81 Si 26.766 11.3417 13.8879 -6.50818 0.328849 3.64124 0.357995 -0.24725 1.0675
82 Si 20.0551 8.17614 5.93567 -3.05875 0.193644 -12.4841 -0.854454 -0.614796 1.00581
83 Si 19.6402 5.34154 10.0097 -19.5232 1.77376 12.7359 2.4813 -2.84359 1.34465
84 Si 19.4998 8.29367 13.1269 -5.76533 -2.96357 -3.05449 -0.230066 -0.449241 0.0255673
85 Si 21.4373 8.22949 11.6587 -2.20596 -17.8004 -22.0743 0.994628 -0.213786 -0.226648
86 Si 31.6969 13.4177 15.8766 16.6392 -0.650779 -17.5042 0.275162 0.0892188 0.912083
87 Si 20.5191 10.2427 4.66598 12.9728 10.8565 -0.531161 -0.290638 0.58415 -2.00859
88 Si 20.5406 12.2178 6.10993 7.09824 -11.2253 4.3201 1.21868 -1.19997 -0.579093
89 Si 24.807 13.2314 5.38171 2.96811 1.2254 -6.25703 -0.68214 -0.963136 0.244698
90 Si 27.245 15.1562 11.0225 8.44167 -0.905263 6.60351 -1.44026 0.173619 0.446135
91 Si 24.5511 13.7893 1.46674 -2.77227 9.54788 3.31737 9.29518 -0.163511 2.22694
92 Si 22.3561 13.0635 4.72621 -10.047 0.331066 3.59442 0.223506 0.966382 0.164127
93 Si 21.9114 15.3399 3.75598 10.5529 2.45032 1.95789 -1.20464 -2.14441 -0.272302
94 Si 26.7974 15.2988 7.87822 -6.57963 1.51417 -0.431507 -0.113025 0.561341 0.420943
95 Si 29.3959 15.3636 16.3726 -2.4195 1.20809 24.2162 0.583011 -1.22501 0.165369
96 Si 20.7442 6.26688 16.6364 -7.46791 14.5223 -10.5125 -0.663024 2.55541 2.825
97 Si 24.0531 16.1315 1.92344 -14.0209 1.77844 -3.48584 3.05405 -1.51546 0.0747695
98 Si 27.4864 19.9057 7.17404 -5.88111 -9.19893 -1.43813 -0.831039 1.04389 -1.35705
99 Si 25.2551 15.4344 9.68867 -5.7929 -2.16868 0.523387 0.464022 -0.172805 -0.55508
100 Si 29.595 20.8301 14.0169 0.850762 15.6806 2.1125 1.23416 0.30075 -0.324912
101 Si 25.9038 8.41723 16.9099 9.20232 -10.8584 -16.5117 -0.301621 1.28009 -0.223721
102 Si 11.4177 16.9911 0.637423 7.50825 -8.41305 2.63617 0.274466 1.2146 -0.762664
103 Si 20.1725 6.95684 8.41454 11.8581 0.874463 -8.83016 0.847063 1.13246 -0.49565
104 Si 22.0831 9.54784 15.0916 6.1208 0.103929 11.6714 0.631383 0.493255 -1.55165