LAMMPS (29 Aug 2024 - Development - patch_29Aug2024-704-g6d0e633edf)
# LAMMPS input generated from LammpsInputFile with pymatgen v2024.10.29

# Sample input script template for MD

# Initialization

# Stage 3
units metal
atom_style atomic
dimension 3
boundary p p p

# Atom definition

# md.restart
read_data system.data
Reading data file ...
  triclinic box = (0 0 0) to (3.866975 3.348898 3.157372) with tilt (1.933487 1.933487 1.116299)
WARNING: Triclinic box skew is large. LAMMPS will run inefficiently. (src/domain.cpp:221)
  1 by 1 by 1 MPI processor grid
  reading atoms ...
  2 atoms
  read_data CPU = 0.000 seconds

# Force field settings (consult official document for detailed formats)

# Stage 7
pair_style tersoff
pair_coeff * * /Users/virkaran/Code/Notebooks/lammps_flows/test_new/../pmg_data/Si.tersoff Si
Reading tersoff potential file /Users/virkaran/Code/Notebooks/lammps_flows/test_new/../pmg_data/Si.tersoff with DATE: 2007-10-25

# Create velocities
velocity all create 300 42 mom yes rot yes dist gaussian

# Stage 9
neigh_modify delay 5 every 1 check yes

# Ensemble constraints
fix 1 all nve
fix 2 all langevin 300 300 0.1 42
# 3 all nose-hoover 300 300 0.1 iso 0 0 0.1

# Output settings
thermo 100 # output thermo data every N steps
dump d1 all custom 100 traj.dump id element x y z vx vy vz fx fy fz
dump_modify d1 sort id element Si

# Actions
timestep 0.001
run 1000

CITE-CITE-CITE-CITE-CITE-CITE-CITE-CITE-CITE-CITE-CITE-CITE-CITE

Your simulation uses code contributions which should be cited:

- Type Label Framework: https://doi.org/10.1021/acs.jpcb.3c08419

@Article{Gissinger24,
 author = {Jacob R. Gissinger, Ilia Nikiforov, Yaser Afshar, Brendon Waters, Moon-ki Choi, Daniel S. Karls, Alexander Stukowski, Wonpil Im, Hendrik Heinz, Axel Kohlmeyer, and Ellad B. Tadmor},
 title = {Type Label Framework for Bonded Force Fields in LAMMPS},
 journal = {J. Phys. Chem. B},
 year =    2024,
 volume =  128,
 number =  13,
 pages =   {3282--3297}
}

CITE-CITE-CITE-CITE-CITE-CITE-CITE-CITE-CITE-CITE-CITE-CITE-CITE

Neighbor list info ...
  update: every = 1 steps, delay = 5 steps, check = yes
  max neighbors/atom: 2000, page size: 100000
  master list distance cutoff = 5.2
  ghost atom cutoff = 5.2
  binsize = 2.6, bins = 3 2 2
  1 neighbor lists, perpetual/occasional/extra = 1 0 0
  (1) pair tersoff, perpetual
      attributes: full, newton on
      pair build: full/bin/atomonly
      stencil: full/bin/3d
      bin: standard
Per MPI rank memory allocation (min/avg/max) = 3.083 | 3.083 | 3.083 Mbytes
   Step          Temp          E_pair         E_mol          TotEng         Press     
         0   300           -9.2557091      0             -9.2169311     -18235.368    
       100   873.67475     -9.2383633      0             -9.1254319     -14910.151    
       200   475.61046     -9.2022299      0             -9.1407524     -13318.836    
       300   994.89364     -9.1740539      0             -9.0454538     -9242.3007    
       400   407.55055     -9.203532       0             -9.150852      -13648.544    
       500   732.96345     -9.2378958      0             -9.1431528     -15347.106    
       600   569.89143     -9.2406706      0             -9.1670064     -16120.575    
       700   446.09509     -9.1875095      0             -9.1298472     -12213.09     
       800   600.87701     -9.2406872      0             -9.1630177     -16017.812    
       900   481.57011     -9.2464335      0             -9.1841857     -16881.042    
      1000   380.38831     -9.2504754      0             -9.2013064     -17546.214    
Loop time of 0.00372229 on 1 procs for 1000 steps with 2 atoms

Performance: 23211.505 ns/day, 0.001 hours/ns, 268651.680 timesteps/s, 537.303 katom-step/s
98.2% CPU use with 1 MPI tasks x no OpenMP threads

MPI task timing breakdown:
Section |  min time  |  avg time  |  max time  |%varavg| %total
---------------------------------------------------------------
Pair    | 0.0028125  | 0.0028125  | 0.0028125  |   0.0 | 75.56
Neigh   | 1.4208e-05 | 1.4208e-05 | 1.4208e-05 |   0.0 |  0.38
Comm    | 0.00047573 | 0.00047573 | 0.00047573 |   0.0 | 12.78
Output  | 0.00013733 | 0.00013733 | 0.00013733 |   0.0 |  3.69
Modify  | 0.00012318 | 0.00012318 | 0.00012318 |   0.0 |  3.31
Other   |            | 0.0001593  |            |       |  4.28

Nlocal:              2 ave           2 max           2 min
Histogram: 1 0 0 0 0 0 0 0 0 0
Nghost:            126 ave         126 max         126 min
Histogram: 1 0 0 0 0 0 0 0 0 0
Neighs:              0 ave           0 max           0 min
Histogram: 1 0 0 0 0 0 0 0 0 0
FullNghs:           56 ave          56 max          56 min
Histogram: 1 0 0 0 0 0 0 0 0 0

Total # of neighbors = 56
Ave neighs/atom = 28
Neighbor list builds = 2
Dangerous builds = 0
write_restart md.restart
System init for write_restart ...
Total wall time: 0:00:00
