LAMMPS (29 Aug 2024 - Development - patch_29Aug2024-704-g6d0e633edf)
# LAMMPS input generated from LammpsInputFile with pymatgen v2024.10.29

# Initialization
units metal
atom_style atomic
dimension 3
boundary p p p
pair_style tersoff

# AtomDefinition
read_data system.data
Reading data file ...
  triclinic box = (0 0 0) to (19.334873 16.744491 15.786858) with tilt (9.667437 9.667437 5.581497)
WARNING: Triclinic box skew is large. LAMMPS will run inefficiently. (src/domain.cpp:221)
  1 by 1 by 1 MPI processor grid
  reading atoms ...
  250 atoms
  read_data CPU = 0.001 seconds

# ForceField
include forcefield.lammps
pair_coeff * * /Users/virkaran/Code/Notebooks/lammps_flows/pmg_data/Si.tersoff Si
Reading tersoff potential file /Users/virkaran/Code/Notebooks/lammps_flows/pmg_data/Si.tersoff with DATE: 2007-10-25

# Velocities
velocity all create 300 42 mom yes rot yes dist gaussian
neigh_modify delay 5 every 1 check yes

# Ensemble
fix 1 all nve
fix 2 all langevin 300 1000 0.1 42

# Outputs
thermo 500
dump d1 all custom 100 traj.dump id element x y z vx vy vz fx fy fz
dump_modify d1 sort id element Si

# Actions
timestep 0.001
run 100000

CITE-CITE-CITE-CITE-CITE-CITE-CITE-CITE-CITE-CITE-CITE-CITE-CITE

Your simulation uses code contributions which should be cited:

- Type Label Framework: https://doi.org/10.1021/acs.jpcb.3c08419

@Article{Gissinger24,
 author = {Jacob R. Gissinger, Ilia Nikiforov, Yaser Afshar, Brendon Waters, Moon-ki Choi, Daniel S. Karls, Alexander Stukowski, Wonpil Im, Hendrik Heinz, Axel Kohlmeyer, and Ellad B. Tadmor},
 title = {Type Label Framework for Bonded Force Fields in LAMMPS},
 journal = {J. Phys. Chem. B},
 year =    2024,
 volume =  128,
 number =  13,
 pages =   {3282--3297}
}

CITE-CITE-CITE-CITE-CITE-CITE-CITE-CITE-CITE-CITE-CITE-CITE-CITE

Neighbor list info ...
  update: every = 1 steps, delay = 5 steps, check = yes
  max neighbors/atom: 2000, page size: 100000
  master list distance cutoff = 5.2
  ghost atom cutoff = 5.2
  binsize = 2.6, bins = 15 9 7
  1 neighbor lists, perpetual/occasional/extra = 1 0 0
  (1) pair tersoff, perpetual
      attributes: full, newton on
      pair build: full/bin/atomonly
      stencil: full/bin/3d
      bin: standard
Per MPI rank memory allocation (min/avg/max) = 3.101 | 3.101 | 3.101 Mbytes
   Step          Temp          E_pair         E_mol          TotEng         Press     
         0   300           -1156.9637      0             -1147.3079     -17230.329    
       500   291.99963     -1146.5896      0             -1137.1913     -19874.077    
      1000   315.09232     -1146.3729      0             -1136.2314     -18921.192    
      1500   280.35937     -1146.4293      0             -1137.4057     -18761.099    
      2000   310.73835     -1146.7795      0             -1136.7782     -19020.672    
      2500   328.82289     -1146.343       0             -1135.7596     -19583.977    
      3000   315.01189     -1147.2212      0             -1137.0823     -18922.016    
      3500   321.61407     -1145.1645      0             -1134.8131     -20302.787    
      4000   319.64656     -1146.1099      0             -1135.8218     -20021.216    
      4500   339.00091     -1145.5286      0             -1134.6176     -21076.875    
      5000   313.27736     -1146.3864      0             -1136.3033     -19830.055    
      5500   384.13937     -1146.4368      0             -1134.0729     -18665.852    
      6000   326.86815     -1145.7131      0             -1135.1926     -19795.7      
      6500   311.18587     -1145.0644      0             -1135.0486     -18256.724    
      7000   361.74564     -1145.8707      0             -1134.2276     -20099.835    
      7500   352.26773     -1145.495       0             -1134.157      -20865.179    
      8000   357.27406     -1144.537       0             -1133.0379     -21142.895    
      8500   334.36023     -1146.4581      0             -1135.6965     -20419.281    
      9000   361.71425     -1144.9144      0             -1133.2723     -18820.315    
      9500   328.98307     -1143.9753      0             -1133.3868     -20598.911    
     10000   374.44766     -1144.8184      0             -1132.7666     -19432.144    
     10500   395.79014     -1145.2074      0             -1132.4685     -18325.616    
     11000   406.86256     -1144.2628      0             -1131.1676     -19326.564    
     11500   378.90737     -1143.149       0             -1130.9536     -20312.287    
     12000   393.65533     -1144.5029      0             -1131.8328     -19912.484    
     12500   393.66953     -1144.3318      0             -1131.6612     -19704.024    
     13000   370.9014      -1144.6366      0             -1132.6988     -19459.111    
     13500   388.59767     -1143.9397      0             -1131.4323     -20254.682    
     14000   410.29245     -1142.9646      0             -1129.7591     -18496.654    
     14500   394.14149     -1143.8602      0             -1131.1744     -18571.549    
     15000   424.20808     -1143.32        0             -1129.6665     -18551.878    
     15500   394.10887     -1143.57        0             -1130.8853     -19839.433    
     16000   390.07031     -1143.0281      0             -1130.4734     -19260.179    
     16500   402.63344     -1142.5064      0             -1129.5473     -19255.176    
     17000   397.88547     -1143.3589      0             -1130.5527     -18064.134    
     17500   392.05628     -1142.5065      0             -1129.8879     -19902.656    
     18000   461.9608      -1142.4579      0             -1127.5893     -19389.495    
     18500   447.11878     -1141.9325      0             -1127.5416     -19743.444    
     19000   398.07476     -1142.3795      0             -1129.5671     -20686.797    
     19500   437.73398     -1143.4242      0             -1129.3354     -17754.927    
     20000   471.67034     -1141.9374      0             -1126.7563     -19404.005    
     20500   480.7244      -1142.0187      0             -1126.5462     -17988.987    
     21000   468.76168     -1139.8314      0             -1124.744      -19824.848    
     21500   452.88057     -1143.8114      0             -1129.2351     -19632.1      
     22000   438.8125      -1140.6854      0             -1126.5618     -19121.874    
     22500   459.43107     -1141.5085      0             -1126.7213     -20240.036    
     23000   451.42455     -1142.4366      0             -1127.9071     -18793.345    
     23500   470.63983     -1142.325       0             -1127.1771     -18980.529    
     24000   452.81309     -1141.7279      0             -1127.1537     -19172.996    
     24500   498.08966     -1139.0087      0             -1122.9773     -16198.246    
     25000   488.04045     -1140.4518      0             -1124.7438     -19061.96     
     25500   448.83773     -1140.1459      0             -1125.6997     -20354.276    
     26000   448.02733     -1141.7459      0             -1127.3258     -22563.86     
     26500   473.17937     -1137.74        0             -1122.5104     -20974.903    
     27000   517.93079     -1139.7708      0             -1123.1008     -17315.745    
     27500   497.69576     -1139.7841      0             -1123.7653     -19097.296    
     28000   486.38117     -1139.6141      0             -1123.9596     -20189.159    
     28500   460.9754      -1139.9826      0             -1125.1458     -18909.796    
     29000   478.82748     -1142.3256      0             -1126.9141     -19604.302    
     29500   486.26212     -1139.9063      0             -1124.2556     -19203.281    
     30000   520.93751     -1140.707       0             -1123.9402     -19891.787    
     30500   555.21781     -1139.0949      0             -1121.2248     -18301.637    
     31000   508.83685     -1138.5728      0             -1122.1955     -21256.901    
     31500   511.70277     -1139.6181      0             -1123.1486     -18566.137    
     32000   486.14764     -1138.3406      0             -1122.6936     -20728.588    
     32500   526.26268     -1138.5623      0             -1121.6241     -20688.846    
     33000   532.10574     -1137.91        0             -1120.7838     -19316.17     
     33500   497.53919     -1139.0484      0             -1123.0347     -19906.034    
     34000   500.68861     -1139.3716      0             -1123.2565     -20796.872    
     34500   615.12577     -1137.9645      0             -1118.1662     -21236.275    
     35000   615.4611      -1138.77        0             -1118.9609     -16686.347    
     35500   535.31879     -1139.1695      0             -1121.9398     -19038.936    
     36000   508.92863     -1138.1038      0             -1121.7235     -17788.26     
     36500   561.17744     -1138.7705      0             -1120.7086     -21322.824    
     37000   529.36495     -1137.4164      0             -1120.3784     -21394.086    
     37500   553.66147     -1138.8323      0             -1121.0123     -18745.965    
     38000   603.67036     -1135.6866      0             -1116.257      -20500.785    
     38500   609.12321     -1138.9932      0             -1119.3881     -19224.082    
     39000   544.55932     -1137.6448      0             -1120.1177     -18748.14     
     39500   564.07092     -1136.9562      0             -1118.8011     -17957.406    
     40000   580.64755     -1135.9842      0             -1117.2956     -18385.249    
     40500   578.25506     -1136.8911      0             -1118.2795     -17373.022    
     41000   590.358       -1137.238       0             -1118.2369     -20416.974    
     41500   628.43974     -1136.3904      0             -1116.1636     -21966.494    
     42000   607.38932     -1137.3232      0             -1117.7739     -17754.508    
     42500   625.8849      -1137.0016      0             -1116.857      -18458.528    
     43000   594.1399      -1134.4725      0             -1115.3496     -20544.265    
     43500   592.31518     -1137.2825      0             -1118.2184     -18409.816    
     44000   576.10344     -1135.6011      0             -1117.0588     -21423.723    
     44500   607.30884     -1135.8874      0             -1116.3406     -19132.339    
     45000   636.99393     -1135.3915      0             -1114.8893     -17361.58     
     45500   585.34007     -1134.6162      0             -1115.7765     -18227.602    
     46000   615.9554      -1133.5807      0             -1113.7557     -18850.52     
     46500   595.60156     -1135.7694      0             -1116.5995     -18695.434    
     47000   529.27391     -1134.5645      0             -1117.5294     -17311.905    
     47500   644.16629     -1135.494       0             -1114.761      -19031.28     
     48000   699.08996     -1136.5742      0             -1114.0734     -17750.905    
     48500   676.34726     -1135.8197      0             -1114.0509     -18338.204    
     49000   686.34091     -1134.146       0             -1112.0556     -18773.247    
     49500   600.19626     -1133.334       0             -1114.0163     -18674.408    
     50000   671.54501     -1136.1513      0             -1114.5371     -18366.791    
     50500   600.66521     -1134.3793      0             -1115.0464     -18531.237    
     51000   656.38475     -1134.6916      0             -1113.5654     -18406.715    
     51500   727.30312     -1133.5547      0             -1110.1459     -16832.024    
     52000   625.91099     -1133.493       0             -1113.3476     -19659.653    
     52500   646.79373     -1133.0741      0             -1112.2566     -21801.667    
     53000   627.15613     -1133.21        0             -1113.0245     -17483.202    
     53500   684.50451     -1132.5014      0             -1110.4701     -21187.236    
     54000   678.11918     -1132.5219      0             -1110.6961     -17854.409    
     54500   663.63748     -1132.8966      0             -1111.5369     -18330.628    
     55000   649.24952     -1133.577       0             -1112.6804     -20251.617    
     55500   630.42397     -1133.7043      0             -1113.4137     -19065.235    
     56000   707.71976     -1133.2306      0             -1110.4521     -18232.274    
     56500   752.11349     -1135.2486      0             -1111.0412     -20456.443    
     57000   666.05258     -1130.4966      0             -1109.0592     -20756.564    
     57500   660.41067     -1131.1021      0             -1109.8463     -19295.05     
     58000   714.2409      -1134.0726      0             -1111.0842     -17099.423    
     58500   641.44163     -1132.8275      0             -1112.1822     -21765.75     
     59000   682.37505     -1132.6381      0             -1110.6753     -18457.024    
     59500   758.53202     -1129.6931      0             -1105.2792     -15121.79     
     60000   663.52658     -1130.7987      0             -1109.4426     -20975.196    
     60500   692.18971     -1131.0757      0             -1108.797      -22060.243    
     61000   800.2167      -1133.1437      0             -1107.3881     -22417.315    
     61500   791.86882     -1132.0519      0             -1106.565      -16038.406    
     62000   763.51931     -1133.2795      0             -1108.705      -18748.611    
     62500   667.83544     -1130.9361      0             -1109.4413     -22576.275    
     63000   720.47074     -1131.9197      0             -1108.7308     -22191.219    
     63500   689.2593      -1130.2749      0             -1108.0905     -18669.847    
     64000   737.68075     -1129.6268      0             -1105.884      -19047.487    
     64500   733.41395     -1128.5326      0             -1104.9271     -19825.137    
     65000   731.51018     -1131.5007      0             -1107.9565     -17824.398    
     65500   758.94655     -1128.9305      0             -1104.5032     -20048.514    
     66000   743.26744     -1129.6669      0             -1105.7443     -17134.146    
     66500   802.48931     -1129.5468      0             -1103.7181     -19140.982    
     67000   783.52399     -1131.8302      0             -1106.6119     -15817.143    
     67500   787.51094     -1130.5315      0             -1105.1848     -21404.59     
     68000   765.09533     -1126.5905      0             -1101.9653     -16434.024    
     68500   778.67321     -1129.5098      0             -1104.4476     -15534.418    
     69000   767.35948     -1133.4302      0             -1108.7321     -20175.681    
     69500   816.9679      -1127.9728      0             -1101.678      -23010.672    
     70000   781.18056     -1127.7466      0             -1102.6037     -20432.023    
     70500   726.68661     -1132.0866      0             -1108.6976     -13882.62     
     71000   846.71845     -1128.2762      0             -1101.0239     -18783.665    
     71500   771.02628     -1130.9803      0             -1106.1643     -21440.872    
     72000   835.03816     -1129.3847      0             -1102.5084     -21727.671    
     72500   752.67057     -1129.1454      0             -1104.9201     -14434.596    
     73000   820.68868     -1128.5872      0             -1102.1727     -18178.018    
     73500   816.87296     -1126.2211      0             -1099.9294     -22772.99     
     74000   876.58203     -1127.6265      0             -1099.413      -19248.752    
     74500   874.19976     -1127.9576      0             -1099.8208     -19559.563    
     75000   779.07249     -1124.4083      0             -1099.3333     -19057.844    
     75500   857.72665     -1125.1767      0             -1097.5701     -19837.934    
     76000   910.81757     -1128.1042      0             -1098.7888     -19898.003    
     76500   850.58886     -1127.1553      0             -1099.7785     -18730.194    
     77000   814.92469     -1128.0915      0             -1101.8625     -19412.685    
     77500   881.92287     -1129.27        0             -1100.8847     -19203.476    
     78000   810.84402     -1126.184       0             -1100.0863     -17732.834    
     78500   897.76416     -1126.2536      0             -1097.3584     -19464.947    
     79000   797.55613     -1124.9485      0             -1099.2785     -19876.172    
     79500   857.21014     -1125.3269      0             -1097.7369     -14957.805    
     80000   876.29771     -1123.71        0             -1095.5056     -22071.276    
     80500   839.88253     -1126.0958      0             -1099.0635     -12884.858    
     81000   819.43855     -1127.7828      0             -1101.4085     -19357.098    
     81500   974.80419     -1127.8301      0             -1096.4553     -15514.36     
     82000   916.31028     -1125.9884      0             -1096.4962     -18221.781    
     82500   870.94876     -1123.8083      0             -1095.7762     -21248.107    
     83000   863.89751     -1125.3924      0             -1097.5872     -19710.831    
     83500   892.28496     -1125.6314      0             -1096.9125     -19546.651    
     84000   870.52214     -1127.414       0             -1099.3956     -17372.809    
     84500   897.02667     -1124.3067      0             -1095.4352     -13729.956    
     85000   930.09001     -1125.5625      0             -1095.6268     -17304.49     
     85500   864.75155     -1123.4566      0             -1095.6239     -21080.044    
     86000   838.00491     -1126.7001      0             -1099.7283     -19139.325    
     86500   950.31279     -1123.4314      0             -1092.8448     -18789.355    
     87000   926.68909     -1122.429       0             -1092.6028     -17853.189    
     87500   960.12556     -1123.9913      0             -1093.0889     -21182.121    
     88000   843.65394     -1122.61        0             -1095.4564     -16221.99     
     88500   985.92233     -1123.4665      0             -1091.7338     -16274.083    
     89000   928.08107     -1120.9555      0             -1091.0844     -17326.04     
     89500   968.99081     -1122.3927      0             -1091.205      -13284.221    
     90000   930.53107     -1125.3726      0             -1095.4228     -18216.813    
     90500   973.07729     -1124.9572      0             -1093.6379     -19440.676    
     91000   938.14072     -1125.8835      0             -1095.6887     -17981.475    
     91500   972.67666     -1124.3602      0             -1093.0539     -18233.943    
     92000   903.72329     -1124.114       0             -1095.027      -18756.723    
     92500   943.05137     -1122.9751      0             -1092.6222     -17397.031    
     93000   977.22849     -1122.7276      0             -1091.2747     -12125.771    
     93500   954.16221     -1126.0395      0             -1095.329      -17504.15     
     94000   1069.64       -1117.245       0             -1082.8178     -15739.593    
     94500   997.86454     -1123.2301      0             -1091.113      -15356.708    
     95000   1040.4452     -1125.1279      0             -1091.6404     -18296.244    
     95500   1035.922      -1122.0826      0             -1088.7406     -15639.285    
     96000   961.13448     -1123.3073      0             -1092.3724     -20555.848    
     96500   961.04424     -1124.7409      0             -1093.8089     -17294.157    
     97000   1005.8638     -1120.9011      0             -1088.5266     -14453.81     
     97500   919.17835     -1123.445       0             -1093.8605     -17386.105    
     98000   954.33646     -1119.554       0             -1088.8379     -14515.289    
     98500   1001.9981     -1121.2058      0             -1088.9557     -13248.392    
     99000   957.50895     -1121.041       0             -1090.2229     -19218.578    
     99500   1051.3893     -1122.718       0             -1088.8782     -17861.904    
    100000   1033.7124     -1122.3204      0             -1089.0496     -18644.947    
Loop time of 37.8387 on 1 procs for 100000 steps with 250 atoms

Performance: 228.337 ns/day, 0.105 hours/ns, 2642.795 timesteps/s, 660.699 katom-step/s
99.3% CPU use with 1 MPI tasks x no OpenMP threads

MPI task timing breakdown:
Section |  min time  |  avg time  |  max time  |%varavg| %total
---------------------------------------------------------------
Pair    | 36.176     | 36.176     | 36.176     |   0.0 | 95.61
Neigh   | 0.12407    | 0.12407    | 0.12407    |   0.0 |  0.33
Comm    | 0.2748     | 0.2748     | 0.2748     |   0.0 |  0.73
Output  | 0.46922    | 0.46922    | 0.46922    |   0.0 |  1.24
Modify  | 0.69846    | 0.69846    | 0.69846    |   0.0 |  1.85
Other   |            | 0.09634    |            |       |  0.25

Nlocal:            250 ave         250 max         250 min
Histogram: 1 0 0 0 0 0 0 0 0 0
Nghost:            924 ave         924 max         924 min
Histogram: 1 0 0 0 0 0 0 0 0 0
Neighs:              0 ave           0 max           0 min
Histogram: 1 0 0 0 0 0 0 0 0 0
FullNghs:         7220 ave        7220 max        7220 min
Histogram: 1 0 0 0 0 0 0 0 0 0

Total # of neighbors = 7220
Ave neighs/atom = 28.88
Neighbor list builds = 344
Dangerous builds = 0
write_restart md.restart
System init for write_restart ...
Total wall time: 0:00:37
