ITEM: TIMESTEP
0
ITEM: NUMBER OF ATOMS
2
ITEM: BOX BOUNDS xy xz yz pp pp pp
0.0000000000000000e+00 7.7339489999999991e+00 1.9334870000000000e+00
0.0000000000000000e+00 4.4651969999999999e+00 1.9334870000000000e+00
0.0000000000000000e+00 3.1573720000000001e+00 1.1162989999999999e+00
ITEM: ATOMS id element x y z vx vy vz fx fy fz
1 Si 1.93349 1.1163 0.789343 -2.98014 -1.72059 -1.21664 -0.249229 -1.84758 1.05365
2 Si 0 0 0 2.98014 1.72059 1.21664 0.411462 1.21368 -2.1174
ITEM: TIMESTEP
100
ITEM: NUMBER OF ATOMS
2
ITEM: BOX BOUNDS xy xz yz pp pp pp
0.0000000000000000e+00 7.7339489999999991e+00 1.9334870000000000e+00
0.0000000000000000e+00 4.4651969999999999e+00 1.9334870000000000e+00
0.0000000000000000e+00 3.1573720000000001e+00 1.1162989999999999e+00
ITEM: ATOMS id element x y z vx vy vz fx fy fz
1 Si 2.05153 1.23331 0.941287 3.05543 2.35225 5.79563 1.09657 0.707918 -2.37147
2 Si 0.109379 0.0778411 0.125309 1.11715 3.17127 -4.22257 -1.20204 1.79678 -1.28061
ITEM: TIMESTEP
200
ITEM: NUMBER OF ATOMS
2
ITEM: BOX BOUNDS xy xz yz pp pp pp
0.0000000000000000e+00 7.7339489999999991e+00 1.9334870000000000e+00
0.0000000000000000e+00 4.4651969999999999e+00 1.9334870000000000e+00
0.0000000000000000e+00 3.1573720000000001e+00 1.1162989999999999e+00
ITEM: ATOMS id element x y z vx vy vz fx fy fz
1 Si 2.08998 1.46171 0.993649 1.17866 2.82689 1.41517 0.435878 1.08036 -0.801314
2 Si 0.222162 0.384056 0.231152 1.26271 5.05052 1.9377 -2.01851 -2.79968 -0.886993
ITEM: TIMESTEP
300
ITEM: NUMBER OF ATOMS
2
ITEM: BOX BOUNDS xy xz yz pp pp pp
0.0000000000000000e+00 7.7339489999999991e+00 1.9334870000000000e+00
0.0000000000000000e+00 4.4651969999999999e+00 1.9334870000000000e+00
0.0000000000000000e+00 3.1573720000000001e+00 1.1162989999999999e+00
ITEM: ATOMS id element x y z vx vy vz fx fy fz
1 Si 1.92336 1.71441 1.07035 -3.60987 -0.205778 6.01638 -1.30524 -2.04115 -1.69763
2 Si -0.0507989 0.502921 0.277473 -6.11939 0.838328 -0.968976 1.79561 2.3003 -0.0650587
ITEM: TIMESTEP
400
ITEM: NUMBER OF ATOMS
2
ITEM: BOX BOUNDS xy xz yz pp pp pp
0.0000000000000000e+00 7.7339489999999991e+00 1.9334870000000000e+00
0.0000000000000000e+00 4.4651969999999999e+00 1.9334870000000000e+00
0.0000000000000000e+00 3.1573720000000001e+00 1.1162989999999999e+00
ITEM: ATOMS id element x y z vx vy vz fx fy fz
1 Si 1.68411 1.65823 1.17324 -1.0078 0.204988 0.773987 -0.600754 -0.886038 2.27815
2 Si -0.266437 0.55107 0.469234 -3.97214 -1.76812 3.95407 -0.643936 1.71066 0.781137
ITEM: TIMESTEP
500
ITEM: NUMBER OF ATOMS
2
ITEM: BOX BOUNDS xy xz yz pp pp pp
0.0000000000000000e+00 7.7339489999999991e+00 1.9334870000000000e+00
0.0000000000000000e+00 4.4651969999999999e+00 1.9334870000000000e+00
0.0000000000000000e+00 3.1573720000000001e+00 1.1162989999999999e+00
ITEM: ATOMS id element x y z vx vy vz fx fy fz
1 Si 1.49715 1.36954 1.45742 -2.01872 -1.76991 3.55907 1.63083 1.22436 0.496327
2 Si -0.451915 0.287525 0.63637 -5.21197 -2.34769 3.54192 -1.29317 1.05614 2.00571
ITEM: TIMESTEP
600
ITEM: NUMBER OF ATOMS
2
ITEM: BOX BOUNDS xy xz yz pp pp pp
0.0000000000000000e+00 7.7339489999999991e+00 1.9334870000000000e+00
0.0000000000000000e+00 4.4651969999999999e+00 1.9334870000000000e+00
0.0000000000000000e+00 3.1573720000000001e+00 1.1162989999999999e+00
ITEM: ATOMS id element x y z vx vy vz fx fy fz
1 Si 4.93996 1.27969 1.38727 -1.55957 -4.50828 1.47585 1.80382 -1.5694 2.56931
2 Si 3.00121 0.139513 0.635533 -3.35508 -2.51387 -2.84646 2.10312 0.714108 -2.31115
ITEM: TIMESTEP
700
ITEM: NUMBER OF ATOMS
2
ITEM: BOX BOUNDS xy xz yz pp pp pp
0.0000000000000000e+00 7.7339489999999991e+00 1.9334870000000000e+00
0.0000000000000000e+00 4.4651969999999999e+00 1.9334870000000000e+00
0.0000000000000000e+00 3.1573720000000001e+00 1.1162989999999999e+00
ITEM: ATOMS id element x y z vx vy vz fx fy fz
1 Si 4.63161 0.954444 1.19301 -1.50424 -3.07074 -4.41569 2.9588 1.60012 1.81015
2 Si 2.78676 -0.190738 0.429273 -1.08918 -1.62939 -2.14175 -1.80235 2.37303 -0.812169
ITEM: TIMESTEP
800
ITEM: NUMBER OF ATOMS
2
ITEM: BOX BOUNDS xy xz yz pp pp pp
0.0000000000000000e+00 7.7339489999999991e+00 1.9334870000000000e+00
0.0000000000000000e+00 4.4651969999999999e+00 1.9334870000000000e+00
0.0000000000000000e+00 3.1573720000000001e+00 1.1162989999999999e+00
ITEM: ATOMS id element x y z vx vy vz fx fy fz
1 Si 4.68033 0.787024 0.896386 -2.59599 0.838799 -5.43979 -0.945671 -2.10838 -0.140437
2 Si 2.71397 -0.337229 0.136101 -0.938127 -3.12187 -2.38855 1.44242 1.01909 0.808609
ITEM: TIMESTEP
900
ITEM: NUMBER OF ATOMS
2
ITEM: BOX BOUNDS xy xz yz pp pp pp
0.0000000000000000e+00 7.7339489999999991e+00 1.9334870000000000e+00
0.0000000000000000e+00 4.4651969999999999e+00 1.9334870000000000e+00
0.0000000000000000e+00 3.1573720000000001e+00 1.1162989999999999e+00
ITEM: ATOMS id element x y z vx vy vz fx fy fz
1 Si 4.46238 0.594511 0.591641 -1.70291 -4.47797 -1.08403 0.866104 0.825222 2.00082
2 Si 6.41037 3.91285 2.96764 -4.12542 -1.14553 0.557542 -0.244411 2.61168 -0.253291
ITEM: TIMESTEP
1000
ITEM: NUMBER OF ATOMS
2
ITEM: BOX BOUNDS xy xz yz pp pp pp
0.0000000000000000e+00 7.7339489999999991e+00 1.9334870000000000e+00
0.0000000000000000e+00 4.4651969999999999e+00 1.9334870000000000e+00
0.0000000000000000e+00 3.1573720000000001e+00 1.1162989999999999e+00
ITEM: ATOMS id element x y z vx vy vz fx fy fz
1 Si 4.11089 0.468979 0.527482 -3.35572 1.07336 3.40177 1.74886 0.0646772 1.76576
2 Si 6.05873 3.80404 2.87797 -1.54479 1.42591 -2.31918 -0.291447 -0.423201 1.29619
