 WARNING in start/cp2k.F:171 macOS' Accelerate framework has its own threading enabled which may interfere with the OpenMP threading. You can disable the Accelerate threading by setting the environment variable VECLIB_MAXIMUM_THREADS=1
 DBCSR| CPU Multiplication driver                                           BLAS
 DBCSR| Multrec recursion limit                                              512
 DBCSR| Multiplication stack size                                           1000
 DBCSR| Maximum elements for images                                    UNLIMITED
 DBCSR| Multiplicative factor virtual images                                   1
 DBCSR| Use multiplication densification                                       T
 DBCSR| Multiplication size stacks                                             3
 DBCSR| Use memory pool for CPU allocation                                     F
 DBCSR| Number of 3D layers                                               SINGLE
 DBCSR| Use MPI memory allocation                                              F
 DBCSR| Use RMA algorithm                                                      F
 DBCSR| Use Communication thread                                               T
 DBCSR| Communication thread load                                             45
 DBCSR| MPI: My node id                                                        0
 DBCSR| MPI: Number of nodes                                                   1
 DBCSR| OMP: Current number of threads                                        12
 DBCSR| OMP: Max number of threads                                            12
 DBCSR| Split modifier for TAS multiplication algorithm                  1.0E+00


  **** **** ******  **  PROGRAM STARTED AT               2022-09-26 13:50:56.238
 ***** ** ***  *** **   PROGRAM STARTED ON          Nicholass-MBP-2.attlocal.net
 **    ****   ******    PROGRAM STARTED BY                               nwinner
 ***** **    ** ** **   PROGRAM PROCESS ID                                 22930
  **** **  *******  **  PROGRAM STARTED IN /Users/nwinner/scratch/atomate2_testi
                                           ng/jobs/Si/job_2022-09-26-20-50-55-23
                                           9877-97216

 CP2K| version string:                                       CP2K version 2022.1
 CP2K| source code revision number:                                  git:2caeb6f
 CP2K| cp2kflags: omp libint fftw3 libxc parallel mpi3 scalapack no_statm_access
 CP2K|             accelerate
 CP2K| is freely available from                            https://www.cp2k.org/
 CP2K| Program compiled at                          Tue Aug  9 08:56:01 UTC 2022
 CP2K| Program compiled on                                              Monterey
 CP2K| Program compiled for                                      Darwin-gfortran
 CP2K| Data directory path    /private/tmp/cp2k-20220809-8293-10x96hg/cp2k-2022.
 CP2K| Input file name                                                  cp2k.inp

 GLOBAL| Force Environment number                                              1
 GLOBAL| Basis set file name                                        BASIS_MOLOPT
 GLOBAL| Potential file name                                      GTH_POTENTIALS
 GLOBAL| MM Potential file name                                     MM_POTENTIAL
 GLOBAL| Coordinate file name                                      __STD_INPUT__
 GLOBAL| Method name                                                        CP2K
 GLOBAL| Project name                                                       CP2K
 GLOBAL| Run type                                                        GEO_OPT
 GLOBAL| FFT library                                                       FFTW3
 GLOBAL| Diagonalization library                                       ScaLAPACK
 GLOBAL| Orthonormality check for eigenvectors                          DISABLED
 GLOBAL| Matrix multiplication library                                 ScaLAPACK
 GLOBAL| All-to-all communication in single precision                          F
 GLOBAL| FFTs using library dependent lengths                                  T
 GLOBAL| Grid backend                                                       AUTO
 GLOBAL| Global print level                                               MEDIUM
 GLOBAL| MPI I/O enabled                                                       T
 GLOBAL| Total number of message passing processes                             1
 GLOBAL| Number of threads for this process                                   12
 GLOBAL| This output is from process                                           0
 GLOBAL| Stack size for threads created by OpenMP (OMP_STACKSIZE)        default
 GLOBAL| CPU model name                                                  UNKNOWN
 GLOBAL| CPUID                                                              1000

 MEMORY| system memory details [Kb]
 MEMORY|                        rank 0           min           max       average
 MEMORY| MemTotal                    0             0             0             0
 MEMORY| MemFree                     0             0             0             0
 MEMORY| Buffers                     0             0             0             0
 MEMORY| Cached                      0             0             0             0
 MEMORY| Slab                        0             0             0             0
 MEMORY| SReclaimable                0             0             0             0
 MEMORY| MemLikelyFree               0             0             0             0


 *** Fundamental physical constants (SI units) ***

 *** Literature: B. J. Mohr and B. N. Taylor,
 ***             CODATA recommended values of the fundamental physical
 ***             constants: 2006, Web Version 5.1
 ***             http://physics.nist.gov/constants

 Speed of light in vacuum [m/s]                             2.99792458000000E+08
 Magnetic constant or permeability of vacuum [N/A**2]       1.25663706143592E-06
 Electric constant or permittivity of vacuum [F/m]          8.85418781762039E-12
 Planck constant (h) [J*s]                                  6.62606896000000E-34
 Planck constant (h-bar) [J*s]                              1.05457162825177E-34
 Elementary charge [C]                                      1.60217648700000E-19
 Electron mass [kg]                                         9.10938215000000E-31
 Electron g factor [ ]                                     -2.00231930436220E+00
 Proton mass [kg]                                           1.67262163700000E-27
 Fine-structure constant                                    7.29735253760000E-03
 Rydberg constant [1/m]                                     1.09737315685270E+07
 Avogadro constant [1/mol]                                  6.02214179000000E+23
 Boltzmann constant [J/K]                                   1.38065040000000E-23
 Atomic mass unit [kg]                                      1.66053878200000E-27
 Bohr radius [m]                                            5.29177208590000E-11

 *** Conversion factors ***

 [u] -> [a.u.]                                              1.82288848426455E+03
 [Angstrom] -> [Bohr] = [a.u.]                              1.88972613288564E+00
 [a.u.] = [Bohr] -> [Angstrom]                              5.29177208590000E-01
 [a.u.] -> [s]                                              2.41888432650478E-17
 [a.u.] -> [fs]                                             2.41888432650478E-02
 [a.u.] -> [J]                                              4.35974393937059E-18
 [a.u.] -> [N]                                              8.23872205491840E-08
 [a.u.] -> [K]                                              3.15774647902944E+05
 [a.u.] -> [kJ/mol]                                         2.62549961709828E+03
 [a.u.] -> [kcal/mol]                                       6.27509468713739E+02
 [a.u.] -> [Pa]                                             2.94210107994716E+13
 [a.u.] -> [bar]                                            2.94210107994716E+08
 [a.u.] -> [atm]                                            2.90362800883016E+08
 [a.u.] -> [eV]                                             2.72113838565563E+01
 [a.u.] -> [Hz]                                             6.57968392072181E+15
 [a.u.] -> [1/cm] (wave numbers)                            2.19474631370540E+05
 [a.u./Bohr**2] -> [1/cm]                                   5.14048714338585E+03


 CELL_TOP| Volume [angstrom^3]:                                        40.888293
 CELL_TOP| Vector a [angstrom     0.000     2.734     2.734   |a| =     3.866975
 CELL_TOP| Vector b [angstrom     2.734     0.000     2.734   |b| =     3.866975
 CELL_TOP| Vector c [angstrom     2.734     2.734     0.000   |c| =     3.866975
 CELL_TOP| Angle (b,c), alpha [degree]:                                60.000000
 CELL_TOP| Angle (a,c), beta  [degree]:                                60.000000
 CELL_TOP| Angle (a,b), gamma [degree]:                                60.000000
 CELL_TOP| Numerically orthorhombic:                                          NO

 GENERATE|  Preliminary Number of Bonds generated:                             0
 GENERATE|  Achieved consistency in connectivity generation.

 CELL| Volume [angstrom^3]:                                            40.888293
 CELL| Vector a [angstrom]:       0.000     2.734     2.734   |a| =     3.866975
 CELL| Vector b [angstrom]:       2.734     0.000     2.734   |b| =     3.866975
 CELL| Vector c [angstrom]:       2.734     2.734     0.000   |c| =     3.866975
 CELL| Angle (b,c), alpha [degree]:                                    60.000000
 CELL| Angle (a,c), beta  [degree]:                                    60.000000
 CELL| Angle (a,b), gamma [degree]:                                    60.000000
 CELL| Numerically orthorhombic:                                              NO

 CELL_REF| Volume [angstrom^3]:                                        40.888293
 CELL_REF| Vector a [angstrom     0.000     2.734     2.734   |a| =     3.866975
 CELL_REF| Vector b [angstrom     2.734     0.000     2.734   |b| =     3.866975
 CELL_REF| Vector c [angstrom     2.734     2.734     0.000   |c| =     3.866975
 CELL_REF| Angle (b,c), alpha [degree]:                                60.000000
 CELL_REF| Angle (a,c), beta  [degree]:                                60.000000
 CELL_REF| Angle (a,b), gamma [degree]:                                60.000000
 CELL_REF| Numerically orthorhombic:                                          NO

 *******************************************************************************
                                    Kpoints
 *******************************************************************************
 BRILLOUIN|                                              Gamma-point calculation
 BRILLOUIN| K-Point point group symmetrization                               OFF
 BRILLOUIN| Wavefunction type                                            COMPLEX
 *******************************************************************************

 *******************************************************************************
 *******************************************************************************
 **                                                                           **
 **     #####                         ##              ##                      **
 **    ##   ##            ##          ##              ##                      **
 **   ##     ##                       ##            ######                    **
 **   ##     ##  ##   ##  ##   #####  ##  ##   ####   ##    #####    #####    **
 **   ##     ##  ##   ##  ##  ##      ## ##   ##      ##   ##   ##  ##   ##   **
 **   ##  ## ##  ##   ##  ##  ##      ####     ###    ##   ######   ######    **
 **    ##  ###   ##   ##  ##  ##      ## ##      ##   ##   ##       ##        **
 **     #######   #####   ##   #####  ##  ##  ####    ##    #####   ##        **
 **           ##                                                    ##        **
 **                                                                           **
 **                                                ... make the atoms dance   **
 **                                                                           **
 **            Copyright (C) by CP2K developers group (2000-2022)             **
 **                      J. Chem. Phys. 152, 194103 (2020)                    **
 **                                                                           **
 *******************************************************************************

 DFT| Spin unrestricted (spin-polarized) Kohn-Sham calculation               UKS
 DFT| Multiplicity                                                             1
 DFT| Number of spin states                                                    2
 DFT| Charge                                                                   0
 DFT| Self-interaction correction (SIC)                                       NO
 DFT| Cutoffs: density                                              1.000000E-10
 DFT|          gradient                                             1.000000E-10
 DFT|          tau                                                  1.000000E-10
 DFT|          cutoff_smoothing_range                               0.000000E+00
 DFT| XC density smoothing                                                  NONE
 DFT| XC derivatives                                                          PW

 FUNCTIONAL| PBE:
 FUNCTIONAL| J.P.Perdew, K.Burke, M.Ernzerhof, Phys. Rev. Letter, vol. 77, n 18,
 FUNCTIONAL|  pp. 3865-3868, (1996){spin polarized}


 QS| Method:                                                                 GPW
 QS| Density plane wave grid type                        NON-SPHERICAL FULLSPACE
 QS| Number of grid levels:                                                    5
 QS| Density cutoff [a.u.]:                                                 75.0
 QS| Multi grid cutoff [a.u.]: 1) grid level                                75.0
 QS|                           2) grid level                                25.0
 QS|                           3) grid level                                 8.3
 QS|                           4) grid level                                 2.8
 QS|                           5) grid level                                 0.9
 QS| Grid level progression factor:                                          3.0
 QS| Relative density cutoff [a.u.]:                                        25.0
 QS| Interaction thresholds: eps_pgf_orb:                                1.0E-06
 QS|                         eps_filter_matrix:                          0.0E+00
 QS|                         eps_core_charge:                            1.0E-14
 QS|                         eps_rho_gspace:                             1.0E-12
 QS|                         eps_rho_rspace:                             1.0E-12
 QS|                         eps_gvg_rspace:                             1.0E-06
 QS|                         eps_ppl:                                    1.0E-02
 QS|                         eps_ppnl:                                   1.0E-08


 ATOMIC KIND INFORMATION

  1. Atomic kind: Si_1                                  Number of atoms:       2

     Orbital Basis Set                                         SZV-MOLOPT-GTH-q4

       Number of orbital shell sets:                                           1
       Number of orbital shells:                                               2
       Number of primitive Cartesian functions:                                6
       Number of Cartesian basis functions:                                    4
       Number of spherical basis functions:                                    4
       Norm type:                                                              2

       Normalised Cartesian orbitals:

                        Set   Shell   Orbital            Exponent    Coefficient

                          1       1    2s                2.693604       0.024874
                                                         1.359614      -0.275696
                                                         0.513245      -0.107109
                                                         0.326563       0.242920
                                                         0.139987       0.078788
                                                         0.068212       0.012566

                          1       2    3px               2.693604      -0.025573
                                                         1.359614      -0.110996
                                                         0.513245       0.067431
                                                         0.326563       0.133541
                                                         0.139987       0.051922
                                                         0.068212       0.011141
                          1       2    3py               2.693604      -0.025573
                                                         1.359614      -0.110996
                                                         0.513245       0.067431
                                                         0.326563       0.133541
                                                         0.139987       0.051922
                                                         0.068212       0.011141
                          1       2    3pz               2.693604      -0.025573
                                                         1.359614      -0.110996
                                                         0.513245       0.067431
                                                         0.326563       0.133541
                                                         0.139987       0.051922
                                                         0.068212       0.011141

       Atomic covalent radius [Angstrom]:                                  1.110

       Atomic van der Waals radius [Angstrom]:                             2.100

     GTH Potential information for                                    GTH-PBE-q4

       Description:                       Goedecker-Teter-Hutter pseudopotential
                                           Goedecker et al., PRB 54, 1703 (1996)
                                          Hartwigsen et al., PRB 58, 3641 (1998)
                                                      Krack, TCA 114, 145 (2005)

       Gaussian exponent of the core charge distribution:               2.582645
       Electronic configuration (s p d ...):                               2   2

       Parameters of the local part of the GTH pseudopotential:

                          rloc        C1          C2          C3          C4
                        0.440000   -6.269288

       Parameters of the non-local part of the GTH pseudopotential:

                   l      r(l)      h(i,j,l)

                   0    0.435634    8.951742   -2.706271
                                   -2.706271    3.493781
                   1    0.497942    2.431277


 MOLECULE KIND INFORMATION


 All atoms are their own molecule, skipping detailed information


 TOTAL NUMBERS AND MAXIMUM NUMBERS

  Total number of            - Atomic kinds:                                   1
                             - Atoms:                                          2
                             - Shell sets:                                     2
                             - Shells:                                         4
                             - Primitive Cartesian functions:                 12
                             - Cartesian basis functions:                      8
                             - Spherical basis functions:                      8

  Maximum angular momentum of- Orbital basis functions:                        1
                             - Local part of the GTH pseudopotential:          0
                             - Non-local part of the GTH pseudopotential:      2


 MODULE QUICKSTEP:  ATOMIC COORDINATES IN angstrom

 Atom  Kind  Element       X           Y           Z          Z(eff)       Mass
    1   1 Si  14       1.367182    1.367182    1.367182       4.0000     28.0855
    2   1 Si  14       0.000000    0.000000    0.000000       4.0000     28.0855




 SCF PARAMETERS         Density guess:                                   RESTART
                        --------------------------------------------------------
                        max_scf:                                             400
                        max_scf_history:                                       0
                        max_diis:                                             15
                        --------------------------------------------------------
                        eps_scf:                                        1.00E+00
                        eps_scf_history:                                0.00E+00
                        eps_diis:                                       1.00E-01
                        eps_eigval:                                     1.00E-05
                        --------------------------------------------------------
                        level_shift [a.u.]:                             0.000000
                        added MOs                                         4    4
                        --------------------------------------------------------
                        Mixing method:                            BROYDEN_MIXING
                                                charge density mixing in g-space
                        --------------------------------------------------------
                        Smear method:                                FERMI_DIRAC
                        Electronic temperature [K]:                        300.0
                        Electronic temperature [a.u.]:                  9.50E-04
                        Accuracy threshold:                             1.00E-10
                        --------------------------------------------------------
                        No outer SCF

 PW_GRID| Information for grid number                                          1
 PW_GRID| Cutoff [a.u.]                                                     75.0
 PW_GRID| spherical cutoff:                                                   NO
 PW_GRID|   Bounds   1            -15      14                Points:          30
 PW_GRID|   Bounds   2            -15      14                Points:          30
 PW_GRID|   Bounds   3            -15      14                Points:          30
 PW_GRID| Volume element (a.u.^3)  0.1022E-01     Volume (a.u.^3)       275.9279
 PW_GRID| Grid span                                                    FULLSPACE

 PW_GRID| Information for grid number                                          2
 PW_GRID| Number of the reference grid                                         1
 PW_GRID| Cutoff [a.u.]                                                     25.0
 PW_GRID| spherical cutoff:                                                   NO
 PW_GRID|   Bounds   1             -9       8                Points:          18
 PW_GRID|   Bounds   2             -9       8                Points:          18
 PW_GRID|   Bounds   3             -9       8                Points:          18
 PW_GRID| Volume element (a.u.^3)  0.4731E-01     Volume (a.u.^3)       275.9279
 PW_GRID| Grid span                                                    FULLSPACE

 PW_GRID| Information for grid number                                          3
 PW_GRID| Number of the reference grid                                         1
 PW_GRID| Cutoff [a.u.]                                                      8.3
 PW_GRID| spherical cutoff:                                                   NO
 PW_GRID|   Bounds   1             -4       4                Points:           9
 PW_GRID|   Bounds   2             -4       4                Points:           9
 PW_GRID|   Bounds   3             -4       4                Points:           9
 PW_GRID| Volume element (a.u.^3)  0.3785         Volume (a.u.^3)       275.9279
 PW_GRID| Grid span                                                    FULLSPACE

 PW_GRID| Information for grid number                                          4
 PW_GRID| Number of the reference grid                                         1
 PW_GRID| Cutoff [a.u.]                                                      2.8
 PW_GRID| spherical cutoff:                                                   NO
 PW_GRID|   Bounds   1             -2       2                Points:           5
 PW_GRID|   Bounds   2             -2       2                Points:           5
 PW_GRID|   Bounds   3             -2       2                Points:           5
 PW_GRID| Volume element (a.u.^3)   2.207         Volume (a.u.^3)       275.9279
 PW_GRID| Grid span                                                    FULLSPACE

 PW_GRID| Information for grid number                                          5
 PW_GRID| Number of the reference grid                                         1
 PW_GRID| Cutoff [a.u.]                                                      0.9
 PW_GRID| spherical cutoff:                                                   NO
 PW_GRID|   Bounds   1             -1       1                Points:           3
 PW_GRID|   Bounds   2             -1       1                Points:           3
 PW_GRID|   Bounds   3             -1       1                Points:           3
 PW_GRID| Volume element (a.u.^3)   10.22         Volume (a.u.^3)       275.9279
 PW_GRID| Grid span                                                    FULLSPACE

 POISSON| Solver                                                        PERIODIC
 POISSON| Periodicity                                                        XYZ

 RS_GRID| Information for grid number                                          1
 RS_GRID|   Bounds   1            -15      14                Points:          30
 RS_GRID|   Bounds   2            -15      14                Points:          30
 RS_GRID|   Bounds   3            -15      14                Points:          30

 RS_GRID| Information for grid number                                          2
 RS_GRID|   Bounds   1             -9       8                Points:          18
 RS_GRID|   Bounds   2             -9       8                Points:          18
 RS_GRID|   Bounds   3             -9       8                Points:          18

 RS_GRID| Information for grid number                                          3
 RS_GRID|   Bounds   1             -4       4                Points:           9
 RS_GRID|   Bounds   2             -4       4                Points:           9
 RS_GRID|   Bounds   3             -4       4                Points:           9

 RS_GRID| Information for grid number                                          4
 RS_GRID|   Bounds   1             -2       2                Points:           5
 RS_GRID|   Bounds   2             -2       2                Points:           5
 RS_GRID|   Bounds   3             -2       2                Points:           5

 RS_GRID| Information for grid number                                          5
 RS_GRID|   Bounds   1             -1       1                Points:           3
 RS_GRID|   Bounds   2             -1       1                Points:           3
 RS_GRID|   Bounds   3             -1       1                Points:           3

 BFGS| Use rational function optimization for step estimation:                NO
 BFGS| Use model Hessian for initial guess:                                  YES
 BFGS| Restart Hessian:                                                       NO
 BFGS| Trust radius:                                                       0.189

 *******************************************************************************
 ***                     STARTING GEOMETRY OPTIMIZATION                      ***
 ***                                   BFGS                                  ***
 *******************************************************************************

 Spin 1

 Number of electrons:                                                          4
 Number of occupied orbitals:                                                  4
 Number of molecular orbitals:                                                 8

 Spin 2

 Number of electrons:                                                          4
 Number of occupied orbitals:                                                  4
 Number of molecular orbitals:                                                 8

 Number of orbital functions:                                                  8
 Number of independent orbital functions:                                      8

 Extrapolation method: initial_guess

 *** WARNING in qs_initial_guess.F:310 :: User requested to restart the    ***
 *** wavefunction from the file named: CP2K-RESTART.kp. This file does not ***
 *** exist. Please check the existence of the file or change properly the  ***
 *** value of the keyword WFN_RESTART_FILE_NAME. Calculation continues     ***
 *** using ATOMIC GUESS.                                                   ***


 Atomic guess: The first density matrix is obtained in terms of atomic orbitals
               and electronic configurations assigned to each atomic kind

 Guess for atomic kind: Si_1

 Electronic structure
    Total number of core electrons                                         10.00
    Total number of valence electrons                                       4.00
    Total number of electrons                                              14.00
    Multiplicity                                                   not specified
    S   [  2.00  2.00] 2.00
    P   [  6.00] 2.00


 *******************************************************************************
                  Iteration          Convergence                     Energy [au]
 *******************************************************************************
                          1         0.00000                      -3.645376135933

 Energy components [Hartree]           Total Energy ::           -3.645376135933
                                        Band Energy ::           -1.267204010000
                                     Kinetic Energy ::            1.608528932927
                                   Potential Energy ::           -5.253905068860
                                      Virial (-V/T) ::            3.266279493835
                                        Core Energy ::           -5.756877107288
                                          XC Energy ::           -1.035888143748
                                     Coulomb Energy ::            3.147389115104
                       Total Pseudopotential Energy ::           -7.404930550824
                       Local Pseudopotential Energy ::           -8.212281762668
                    Nonlocal Pseudopotential Energy ::            0.807351211844
                                        Confinement ::            0.395245106086

 Orbital energies  State     L     Occupation   Energy[a.u.]          Energy[eV]

                       1     0          2.000      -0.443991          -12.081615

                       1     1          2.000      -0.189611           -5.159572


 Total Electron Density at R=0:                                         0.001119

 Spin 1
 Re-scaling the density matrix to get the right number of electrons for spin 1
                  # Electrons              Trace(P)               Scaling factor
                            4                 4.000                        1.000

 Spin 2
 Re-scaling the density matrix to get the right number of electrons for spin 2
                  # Electrons              Trace(P)               Scaling factor
                            4                 4.000                        1.000


 SCF WAVEFUNCTION OPTIMIZATION

  Step     Update method      Time    Convergence         Total energy    Change
  ------------------------------------------------------------------------------
     1 NoMix/Diag. 0.50E-01    0.4     0.78501600        -7.8308364593 -7.83E+00

  *** SCF run converged in     1 steps ***


  Electronic density on regular grids:         -8.0000000000        0.0000000000
  Core density on regular grids:                8.0000000000       -0.0000000000
  Total charge density on r-space grids:       -0.0000000000
  Total charge density g-space grids:          -0.0000000000

  Overlap energy of the core charge distribution:               0.00000000000917
  Self energy of the core charge distribution:                -20.51598485628205
  Core Hamiltonian energy:                                      4.60590854754202
  Hartree energy:                                              10.48453877592151
  Exchange-correlation energy:                                 -2.40529892647100
  Electronic entropic energy:                                  -0.00000000000000
  Fermi energy:                                                 0.24551121327484

  Total energy:                                                -7.83083645928035

  Integrated absolute spin density  :                               0.0000000000

 *** WARNING in qs_scf_post_gpw.F:1826 :: Spin contamination estimate not ***
 *** implemented for k-points.                                            ***


 !-----------------------------------------------------------------------------!
                     Mulliken Population Analysis

 #  Atom  Element  Kind  Atomic population (alpha,beta) Net charge  Spin moment
       1     Si       1         2.000030     2.000030    -0.000060    -0.000000
       2     Si       1         1.999970     1.999970     0.000060    -0.000000
 # Total charge and spin        4.000000     4.000000     0.000000    -0.000000

 !-----------------------------------------------------------------------------!

 !-----------------------------------------------------------------------------!
                           Hirshfeld Charges

  #Atom  Element  Kind  Ref Charge     Population       Spin moment  Net charge
      1       Si     1       4.000    2.000   2.000            0.000     -0.000
      2       Si     1       4.000    2.000   2.000            0.000      0.000

  Total Charge                                                           -0.000
 !-----------------------------------------------------------------------------!

 ENERGY| Total FORCE_EVAL ( QS ) energy [a.u.]:               -7.107007291068193

 ATOMIC FORCES in [a.u.]

 # Atom   Kind   Element          X              Y              Z
      1      1      Si          0.00000001     0.00000001     0.00000001
      2      1      Si         -0.00000000    -0.00000000    -0.00000000
 SUM OF ATOMIC FORCES           0.00000000     0.00000000     0.00000000     0.00000000

 STRESS| Analytical stress tensor [GPa]
 STRESS|                        x                   y                   z
 STRESS|      x        5.20655685166E+01   6.22625814795E-06   6.22625783194E-06
 STRESS|      y        6.22625814795E-06   5.20655685166E+01   6.22625770035E-06
 STRESS|      z        6.22625783194E-06   6.22625770035E-06   5.20655685166E+01
 STRESS| 1/3 Trace                                             5.20655685166E+01
 STRESS| Determinant                                           1.41140562768E+05

 STRESS| Eigenvectors and eigenvalues of the analytical stress tensor [GPa]
 STRESS|                        1                   2                   3
 STRESS| Eigenvalues   5.20655622903E+01   5.20655622903E+01   5.20655809691E+01
 STRESS|      x          -0.670120311718     -0.466481958531      0.577350283787
 STRESS|      y           0.739045399638     -0.347100226514      0.577350266326
 STRESS|      z          -0.068925068714      0.813582211653      0.577350257456

 --------  Informations at step =     0 ------------
  Optimization Method        =                 BFGS
  Total Energy               =        -7.1070072911
  Used time                  =               10.497
 ---------------------------------------------------

 --------------------------
 OPTIMIZATION STEP:      1
 --------------------------

 Spin 1

 Number of electrons:                                                          4
 Number of occupied orbitals:                                                  4
 Number of molecular orbitals:                                                 8

 Spin 2

 Number of electrons:                                                          4
 Number of occupied orbitals:                                                  4
 Number of molecular orbitals:                                                 8

 Number of orbital functions:                                                  8
 Number of independent orbital functions:                                      8

 Extrapolation method: initial_guess


 SCF WAVEFUNCTION OPTIMIZATION

  Step     Update method      Time    Convergence         Total energy    Change
  ------------------------------------------------------------------------------
     1 NoMix/Diag. 0.50E-01    0.4     0.00006329        -7.1070072911 -7.11E+00

  *** SCF run converged in     1 steps ***


  Electronic density on regular grids:         -8.0000000000       -0.0000000000
  Core density on regular grids:                8.0000000000       -0.0000000000
  Total charge density on r-space grids:       -0.0000000000
  Total charge density g-space grids:          -0.0000000000

  Overlap energy of the core charge distribution:               0.00000000000917
  Self energy of the core charge distribution:                -20.51598485628205
  Core Hamiltonian energy:                                      5.61013934210755
  Hartree energy:                                              10.33525981107906
  Exchange-correlation energy:                                 -2.53642158798193
  Electronic entropic energy:                                  -0.00000000000000
  Fermi energy:                                                 0.28218294311576

  Total energy:                                                -7.10700729106820

  Integrated absolute spin density  :                               0.0000000000

 *** WARNING in qs_scf_post_gpw.F:1826 :: Spin contamination estimate not ***
 *** implemented for k-points.                                            ***


 !-----------------------------------------------------------------------------!
                     Mulliken Population Analysis

 #  Atom  Element  Kind  Atomic population (alpha,beta) Net charge  Spin moment
       1     Si       1         1.999896     1.999896     0.000207    -0.000000
       2     Si       1         2.000104     2.000104    -0.000207     0.000000
 # Total charge and spin        4.000000     4.000000     0.000000     0.000000

 !-----------------------------------------------------------------------------!

 !-----------------------------------------------------------------------------!
                           Hirshfeld Charges

  #Atom  Element  Kind  Ref Charge     Population       Spin moment  Net charge
      1       Si     1       4.000    2.000   2.000           -0.000      0.000
      2       Si     1       4.000    2.000   2.000            0.000     -0.000

  Total Charge                                                           -0.000
 !-----------------------------------------------------------------------------!

 ENERGY| Total FORCE_EVAL ( QS ) energy [a.u.]:               -7.107007288478712

 ATOMIC FORCES in [a.u.]

 # Atom   Kind   Element          X              Y              Z
      1      1      Si         -0.00000004    -0.00000003    -0.00000003
      2      1      Si          0.00000004     0.00000003     0.00000003
 SUM OF ATOMIC FORCES           0.00000000     0.00000000     0.00000000     0.00000000

 STRESS| Analytical stress tensor [GPa]
 STRESS|                        x                   y                   z
 STRESS|      x        6.09883408570E+01  -1.72640877486E-07  -1.72640964995E-07
 STRESS|      y       -1.72640877486E-07   6.09883408570E+01  -2.72678171171E-06
 STRESS|      z       -1.72640964995E-07  -2.72678171171E-06   6.09883408570E+01
 STRESS| 1/3 Trace                                             6.09883408570E+01
 STRESS| Determinant                                           2.26850873862E+05

 STRESS| Eigenvectors and eigenvalues of the analytical stress tensor [GPa]
 STRESS|                        1                   2                   3
 STRESS| Eigenvalues   6.09883381086E+01   6.09883408787E+01   6.09883435838E+01
 STRESS|      x           0.088483317182     -0.996077658910     -0.000000020892
 STRESS|      y           0.704333242793      0.062567166264     -0.707106804382
 STRESS|      z           0.704333291615      0.062567140939      0.707106757991

 --------  Informations at step =     1 ------------
  Optimization Method        =                 BFGS
  Total Energy               =        -7.1070072885
  Real energy change         =         0.0000000026
  Predicted change in energy =        -0.0000000000
  Scaling factor             =         0.0000000000
  Step size                  =         0.0000000852
  Trust radius               =         0.1889726133
  Decrease in energy         =                   NO
  Used time                  =               12.164

  Convergence check :
  Max. step size             =         0.0000000852
  Conv. limit for step size  =         0.0030000000
  Convergence in step size   =                  YES
  RMS step size              =         0.0000000606
  Conv. limit for RMS step   =         0.0015000000
  Convergence in RMS step    =                  YES
  Max. gradient              =         0.0000000437
  Conv. limit for gradients  =         0.0004500000
  Conv. in gradients         =                  YES
  RMS gradient               =         0.0000000342
  Conv. limit for RMS grad.  =         0.0003000000
  Conv. in RMS gradients     =                  YES
 ---------------------------------------------------

 *******************************************************************************
 ***                    GEOMETRY OPTIMIZATION COMPLETED                      ***
 *******************************************************************************

                    Reevaluating energy at the minimum

 Spin 1

 Number of electrons:                                                          4
 Number of occupied orbitals:                                                  4
 Number of molecular orbitals:                                                 8

 Spin 2

 Number of electrons:                                                          4
 Number of occupied orbitals:                                                  4
 Number of molecular orbitals:                                                 8

 Number of orbital functions:                                                  8
 Number of independent orbital functions:                                      8

 Extrapolation method: initial_guess


 SCF WAVEFUNCTION OPTIMIZATION

  Step     Update method      Time    Convergence         Total energy    Change
  ------------------------------------------------------------------------------
     1 NoMix/Diag. 0.50E-01    0.5     0.00022255        -7.1070072885 -7.11E+00

  *** SCF run converged in     1 steps ***


  Electronic density on regular grids:         -8.0000000000       -0.0000000000
  Core density on regular grids:                8.0000000000       -0.0000000000
  Total charge density on r-space grids:       -0.0000000000
  Total charge density g-space grids:          -0.0000000000

  Overlap energy of the core charge distribution:               0.00000000000917
  Self energy of the core charge distribution:                -20.51598485628205
  Core Hamiltonian energy:                                      5.61013934244708
  Hartree energy:                                              10.33525981401158
  Exchange-correlation energy:                                 -2.53642158866450
  Electronic entropic energy:                                  -0.00000000000000
  Fermi energy:                                                 0.28218294332037

  Total energy:                                                -7.10700728847871

  Integrated absolute spin density  :                               0.0000000000

 *** WARNING in qs_scf_post_gpw.F:1826 :: Spin contamination estimate not ***
 *** implemented for k-points.                                            ***


 !-----------------------------------------------------------------------------!
                     Mulliken Population Analysis

 #  Atom  Element  Kind  Atomic population (alpha,beta) Net charge  Spin moment
       1     Si       1         2.000358     2.000358    -0.000716    -0.000000
       2     Si       1         1.999642     1.999642     0.000716     0.000000
 # Total charge and spin        4.000000     4.000000     0.000000    -0.000000

 !-----------------------------------------------------------------------------!

 !-----------------------------------------------------------------------------!
                           Hirshfeld Charges

  #Atom  Element  Kind  Ref Charge     Population       Spin moment  Net charge
      1       Si     1       4.000    2.000   2.000           -0.000     -0.000
      2       Si     1       4.000    2.000   2.000            0.000      0.000

  Total Charge                                                           -0.000
 !-----------------------------------------------------------------------------!

 ENERGY| Total FORCE_EVAL ( QS ) energy [a.u.]:               -7.107007288478712

 -------------------------------------------------------------------------------
 -                                                                             -
 -                                DBCSR STATISTICS                             -
 -                                                                             -
 -------------------------------------------------------------------------------
 COUNTER                                    TOTAL       BLAS       SMM       ACC
 flops inhomo. stacks                           0       0.0%      0.0%      0.0%
 flops total                         0.000000E+00       0.0%      0.0%      0.0%
 flops max/rank                      0.000000E+00       0.0%      0.0%      0.0%
 matmuls inhomo. stacks                         0       0.0%      0.0%      0.0%
 matmuls total                                  0       0.0%      0.0%      0.0%
 number of processed stacks                     0       0.0%      0.0%      0.0%
 average stack size                                     0.0       0.0       0.0
 marketing flops                     0.000000E+00
 -------------------------------------------------------------------------------
 -                                                                             -
 -                      DBCSR MESSAGE PASSING PERFORMANCE                      -
 -                                                                             -
 -------------------------------------------------------------------------------
 ROUTINE             CALLS      AVE VOLUME [Bytes]
 MP_Bcast                1                     12.
 MP_Allreduce         6801                      8.
 MP_Alltoall         34448                    356.
 -------------------------------------------------------------------------------

 -------------------------------------------------------------------------------
 -                                                                             -
 -                                DBM STATISTICS                               -
 -                                                                             -
 -------------------------------------------------------------------------------
    M  x    N  x    K                                          COUNT     PERCENT
 -------------------------------------------------------------------------------

 -------------------------------------------------------------------------------
 -                                                                             -
 -                                GRID STATISTICS                              -
 -                                                                             -
 -------------------------------------------------------------------------------
 LP    KERNEL             BACKEND                              COUNT     PERCENT
 2     collocate general  REF                                  71664      54.53%
 2     integrate general  REF                                  35832      27.27%
 5     integrate general  REF                                  23888      18.18%
 0     collocate general  REF                                     12       0.01%
 0     integrate general  REF                                     12       0.01%
 3     integrate general  REF                                      4       0.00%
 -------------------------------------------------------------------------------

 MEMORY| Estimated peak process memory [MiB]                                   0

 -------------------------------------------------------------------------------
 ----                             MULTIGRID INFO                            ----
 -------------------------------------------------------------------------------
 count for grid        1:           4778          cutoff [a.u.]           75.00
 count for grid        2:           6728          cutoff [a.u.]           25.00
 count for grid        3:           7180          cutoff [a.u.]            8.33
 count for grid        4:             10          cutoff [a.u.]            2.78
 count for grid        5:              0          cutoff [a.u.]            0.93
 total gridlevel count  :          18696

 -------------------------------------------------------------------------------
 -                                                                             -
 -                         MESSAGE PASSING PERFORMANCE                         -
 -                                                                             -
 -------------------------------------------------------------------------------

 ROUTINE             CALLS      AVE VOLUME [Bytes]
 MP_Group                5
 MP_Bcast             4361                    165.
 MP_Allreduce         2509                     13.
 MP_Sync                 7
 MP_Wait               220
 MP_ISend              308                     79.
 MP_IRecv              308                     79.
 -------------------------------------------------------------------------------


 -------------------------------------------------------------------------------
 -                                                                             -
 -                           R E F E R E N C E S                               -
 -                                                                             -
 -------------------------------------------------------------------------------

 CP2K version 2022.1, the CP2K developers group (2022).
 CP2K is freely available from https://www.cp2k.org/ .

 Kuehne,Thomas D.; Iannuzzi,Marcella; Del Ben,Mauro;
 Rybkin,Vladimir V.; Seewald,Patrick; Stein,Frederick; Laino,Teodoro;
 Khaliullin,Rustam Z.; Schuett,Ole; Schiffmann,Florian; Golze,Dorothea;
 Wilhelm,Jan; Chulkov,Sergey; Bani-Hashemian,Mohammad Hossein;
 Weber,Valery; Borstnik,Urban; Taillefumier,Mathieu;
 Jakobovits,Alice Shoshana; Lazzaro,Alfio; Pabst,Hans; Mueller,Tiziano;
 Schade,Robert; Guidon,Manuel; Andermatt,Samuel; Holmberg,Nico;
 Schenter,Gregory K.; Hehn,Anna; Bussy,Augustin; Belleflamme,Fabian;
 Tabacchi,Gloria; Gloess,Andreas; Lass,Michael; Bethune,Iain;
 Mundy,Christopher J.; Plessl,Christian; Watkins,Matt;
 VandeVondele,Joost; Krack,Matthias; Hutter,Juerg.
 The Journal of Chemical Physics, 152 (19), (2020).
 CP2K: An electronic structure and molecular dynamics software package -
 Quickstep: Efficient and accurate electronic structure calculations.
 https://doi.org/10.1063/5.0007045

 Schuett, Ole; Messmer, Peter; Hutter, Juerg; VandeVondele, Joost.
 Electronic Structure Calculations on Graphics Processing Units, John
 Wiley & Sons, Ltd, 173-190 (2016).
 GPU-Accelerated Sparse Matrix-Matrix Multiplication for
 Linear Scaling Density Functional Theory.
 https://doi.org/10.1002/9781118670712.ch8

 Borstnik, U; VandeVondele, J; Weber, V; Hutter, J.
 PARALLEL COMPUTING, 40 (5-6), 47-58 (2014).
 Sparse matrix multiplication: The distributed block-compressed sparse
 row library.
 https://doi.org/10.1016/j.parco.2014.03.012

 Hutter, J; Iannuzzi, M; Schiffmann, F; VandeVondele, J.
 WIREs Comput Mol Sci., 4 (1), 15-25 (2014).
 CP2K: atomistic simulations of condensed matter systems.
 https://doi.org/10.1002/wcms.1159

 VandeVondele, J; Hutter, J.
 JOURNAL OF CHEMICAL PHYSICS, 127 (11), 114105 (2007).
 Gaussian basis sets for accurate calculations on molecular systems in
 gas and condensed phases.
 https://doi.org/10.1063/1.2770708

 Krack, M.
 THEORETICAL CHEMISTRY ACCOUNTS, 114 (1-3), 145-152 (2005).
 Pseudopotentials for H to Kr optimized for gradient-corrected
 exchange-correlation functionals.
 https://doi.org/10.1007/s00214-005-0655-y

 VandeVondele, J; Krack, M; Mohamed, F; Parrinello, M; Chassaing, T;
 Hutter, J. COMPUTER PHYSICS COMMUNICATIONS, 167 (2), 103-128 (2005).
 QUICKSTEP: Fast and accurate density functional calculations using a
 mixed Gaussian and plane waves approach.
 https://doi.org/10.1016/j.cpc.2004.12.014

 Frigo, M; Johnson, SG.
 PROCEEDINGS OF THE IEEE, 93 (2), 216-231 (2005).
 The design and implementation of FFTW3.
 https://doi.org/10.1109/JPROC.2004.840301

 Hartwigsen, C; Goedecker, S; Hutter, J.
 PHYSICAL REVIEW B, 58 (7), 3641-3662 (1998).
 Relativistic separable dual-space Gaussian pseudopotentials from H to Rn.
 https://doi.org/10.1103/PhysRevB.58.3641

 Lippert, G; Hutter, J; Parrinello, M.
 MOLECULAR PHYSICS, 92 (3), 477-487 (1997).
 A hybrid Gaussian and plane wave density functional scheme.
 https://doi.org/10.1080/002689797170220

 Perdew, JP; Burke, K; Ernzerhof, M.
 PHYSICAL REVIEW LETTERS, 77 (18), 3865-3868 (1996).
 Generalized gradient approximation made simple.
 https://doi.org/10.1103/PhysRevLett.77.3865

 Goedecker, S; Teter, M; Hutter, J.
 PHYSICAL REVIEW B, 54 (3), 1703-1710 (1996).
 Separable dual-space Gaussian pseudopotentials.
 https://doi.org/10.1103/PhysRevB.54.1703


 -------------------------------------------------------------------------------
 -                                                                             -
 -                                T I M I N G                                  -
 -                                                                             -
 -------------------------------------------------------------------------------
 SUBROUTINE                       CALLS  ASD         SELF TIME        TOTAL TIME
                                MAXIMUM       AVERAGE  MAXIMUM  AVERAGE  MAXIMUM
 CP2K                                 1  1.0    0.009    0.009   26.146   26.146
 cp_geo_opt                           1  2.0    0.004    0.004   26.108   26.108
 geoopt_bfgs                          1  3.0    0.003    0.003   26.104   26.104
 cp_eval_at                           3  4.0    0.000    0.000   26.092   26.092
 qs_forces                            2  5.0    0.001    0.001   22.654   22.654
 build_core_hamiltonian_matrix_       2  6.0    0.006    0.006   15.495   15.495
 dbcsr_add_d                       8814  7.6    0.014    0.014   15.055   15.055
 dbcsr_add_anytype                 8814  8.6    0.861    0.861   15.041   15.041
 dbcsr_finalize                   44214  9.7    4.541    4.541   11.824   11.824
 qs_energies                          3  5.7    0.010    0.010    9.468    9.468
 dbcsr_merge_all                  12248 11.3    5.992    5.992    6.596    6.596
 scf_env_do_scf                       3  6.7    0.000    0.000    4.883    4.883
 scf_env_do_scf_inner_loop            3  7.7    0.003    0.003    4.882    4.882
 build_core_ppl_forces                2  7.0    0.025    0.025    4.712    4.712
 build_core_ppnl_forces               2  7.0    0.024    0.024    4.705    4.705
 write_kpoints_restart                3  8.7    0.006    0.006    2.561    2.561
 dbcsr_iterator_start             36844 10.8    2.500    2.500    2.523    2.523
 copy_dbcsr_to_fm                  2058  9.7    0.021    0.021    2.479    2.479
 dbcsr_complete_redistribute       3434 11.0    0.084    0.084    2.451    2.451
 init_scf_run                         3  6.7    0.000    0.000    2.332    2.332
 scf_env_initial_rho_setup            3  7.7    0.000    0.000    2.332    2.332
 dbcsr_create_new                 27606  9.6    1.220    1.220    2.147    2.147
 rebuild_ks_matrix                    5  8.6    0.000    0.000    2.141    2.141
 qs_ks_build_kohn_sham_matrix         5  9.6    0.006    0.006    2.141    2.141
 dbcsr_scale_anytype               8816  9.6    0.449    0.449    1.978    1.978
 sum_up_and_integrate                 5 10.6    0.000    0.000    1.887    1.887
 integrate_v_rspace                  10 11.6    0.013    0.013    1.887    1.887
 qs_rho_update_rho_low                6  8.7    0.000    0.000    1.881    1.881
 calculate_rho_elec                  12  9.7    0.003    0.003    1.881    1.881
 grid_integrate_task_list            10 12.6    1.848    1.848    1.848    1.848
 grid_collocate_task_list            12 10.7    1.839    1.839    1.839    1.839
 dbcsr_iterator_stop              36844 10.8    1.445    1.445    1.460    1.460
 calculate_first_density_matrix       3  8.7    0.002    0.002    1.377    1.377
 copy_fm_to_dbcsr                  1376 10.5    0.005    0.005    1.296    1.296
 read_kpoints_restart                 2  9.5    0.005    0.005    1.292    1.292
 qs_ks_update_qs_env_forces           2  6.0    0.000    0.000    1.125    1.125
 qs_ks_update_qs_env                  3  8.7    0.000    0.000    1.032    1.032
 qs_energies_init_hamiltonians        3  6.7    0.000    0.000    0.919    0.919
 dbcsr_make_index_exist           27606 10.6    0.910    0.910    0.910    0.910
 dbcsr_set                        20410  9.4    0.021    0.021    0.834    0.834
 dbcsr_zero                       20410 10.4    0.813    0.813    0.813    0.813
 mixing_allocate                      3  6.7    0.012    0.012    0.670    0.670
 dbcsr_copy                        8475  9.0    0.294    0.294    0.663    0.663
 merge_index                      12248 12.3    0.577    0.577    0.577    0.577
 build_core_hamiltonian_matrix        3  7.7    0.003    0.003    0.554    0.554
 -------------------------------------------------------------------------------

 The number of warnings for this run is : 4

 -------------------------------------------------------------------------------
  **** **** ******  **  PROGRAM ENDED AT                 2022-09-26 13:51:22.790
 ***** ** ***  *** **   PROGRAM RAN ON              Nicholass-MBP-2.attlocal.net
 **    ****   ******    PROGRAM RAN BY                                   nwinner
 ***** **    ** ** **   PROGRAM PROCESS ID                                 22930
  **** **  *******  **  PROGRAM STOPPED IN /Users/nwinner/scratch/atomate2_testi
                                           ng/jobs/Si/job_2022-09-26-20-50-55-23
                                           9877-97216
