   2   2   1   0
  0.4454554E+02  0.5013216E-09  0.5013216E-09  0.5013216E-09  0.5000000E-15
  1.000000000000000E-004
  CAR 
 unknown system                          
     71.45896920    -30.78132606  301      3.72477359      1.00000000
    -30.781  0.0000E+00  0.0000E+00  0.0000E+00  0.0000E+00
    -30.441  0.0000E+00  0.0000E+00  0.0000E+00  0.0000E+00
    -30.100  0.0000E+00  0.0000E+00  0.0000E+00  0.0000E+00
    -29.759  0.0000E+00  0.0000E+00  0.0000E+00  0.0000E+00
    -29.418  0.0000E+00  0.0000E+00  0.0000E+00  0.0000E+00
    -29.077  0.0000E+00  0.0000E+00  0.0000E+00  0.0000E+00
    -28.737  0.0000E+00  0.0000E+00  0.0000E+00  0.0000E+00
    -28.396  0.0000E+00  0.0000E+00  0.0000E+00  0.0000E+00
    -28.055  0.0000E+00  0.0000E+00  0.0000E+00  0.0000E+00
    -27.714  0.0000E+00  0.0000E+00  0.0000E+00  0.0000E+00
    -27.373  0.0000E+00  0.0000E+00  0.0000E+00  0.0000E+00
    -27.033  0.0000E+00  0.0000E+00  0.0000E+00  0.0000E+00
    -26.692  0.0000E+00  0.0000E+00  0.0000E+00  0.0000E+00
    -26.351  0.1269E-10  0.1269E-10  0.4325E-11  0.4325E-11
    -26.010  0.2963E-01  0.2963E-01  0.1010E-01  0.1010E-01
    -25.669  0.0000E+00  0.0000E+00  0.1010E-01  0.1010E-01
    -25.329  0.0000E+00  0.0000E+00  0.1010E-01  0.1010E-01
    -24.988  0.0000E+00  0.0000E+00  0.1010E-01  0.1010E-01
    -24.647  0.0000E+00  0.0000E+00  0.1010E-01  0.1010E-01
    -24.306  0.0000E+00  0.0000E+00  0.1010E-01  0.1010E-01
    -23.965  0.0000E+00  0.0000E+00  0.1010E-01  0.1010E-01
    -23.625  0.0000E+00  0.0000E+00  0.1010E-01  0.1010E-01
    -23.284  0.0000E+00  0.0000E+00  0.1010E-01  0.1010E-01
    -22.943  0.0000E+00  0.0000E+00  0.1010E-01  0.1010E-01
    -22.602  0.0000E+00  0.0000E+00  0.1010E-01  0.1010E-01
    -22.261  0.0000E+00  0.0000E+00  0.1010E-01  0.1010E-01
    -21.921  0.0000E+00  0.0000E+00  0.1010E-01  0.1010E-01
    -21.580  0.0000E+00  0.0000E+00  0.1010E-01  0.1010E-01
    -21.239  0.0000E+00  0.0000E+00  0.1010E-01  0.1010E-01
    -20.898  0.0000E+00  0.0000E+00  0.1010E-01  0.1010E-01
    -20.557  0.0000E+00  0.0000E+00  0.1010E-01  0.1010E-01
    -20.216  0.0000E+00  0.0000E+00  0.1010E-01  0.1010E-01
    -19.876  0.0000E+00  0.0000E+00  0.1010E-01  0.1010E-01
    -19.535  0.0000E+00  0.0000E+00  0.1010E-01  0.1010E-01
    -19.194  0.0000E+00  0.0000E+00  0.1010E-01  0.1010E-01
    -18.853  0.0000E+00  0.0000E+00  0.1010E-01  0.1010E-01
    -18.512  0.0000E+00  0.0000E+00  0.1010E-01  0.1010E-01
    -18.172  0.0000E+00  0.0000E+00  0.1010E-01  0.1010E-01
    -17.831  0.0000E+00  0.0000E+00  0.1010E-01  0.1010E-01
    -17.490  0.0000E+00  0.0000E+00  0.1010E-01  0.1010E-01
    -17.149  0.0000E+00  0.0000E+00  0.1010E-01  0.1010E-01
    -16.808  0.0000E+00  0.0000E+00  0.1010E-01  0.1010E-01
    -16.468  0.0000E+00  0.0000E+00  0.1010E-01  0.1010E-01
    -16.127  0.0000E+00  0.0000E+00  0.1010E-01  0.1010E-01
    -15.786  0.0000E+00  0.0000E+00  0.1010E-01  0.1010E-01
    -15.445  0.0000E+00  0.0000E+00  0.1010E-01  0.1010E-01
    -15.104  0.0000E+00  0.0000E+00  0.1010E-01  0.1010E-01
    -14.764  0.0000E+00  0.0000E+00  0.1010E-01  0.1010E-01
    -14.423  0.0000E+00  0.0000E+00  0.1010E-01  0.1010E-01
    -14.082  0.0000E+00  0.0000E+00  0.1010E-01  0.1010E-01
    -13.741  0.0000E+00  0.0000E+00  0.1010E-01  0.1010E-01
    -13.400  0.0000E+00  0.0000E+00  0.1010E-01  0.1010E-01
    -13.060  0.0000E+00  0.0000E+00  0.1010E-01  0.1010E-01
    -12.719  0.0000E+00  0.0000E+00  0.1010E-01  0.1010E-01
    -12.378  0.0000E+00  0.0000E+00  0.1010E-01  0.1010E-01
    -12.037  0.0000E+00  0.0000E+00  0.1010E-01  0.1010E-01
    -11.696  0.0000E+00  0.0000E+00  0.1010E-01  0.1010E-01
    -11.356  0.9262E-09  0.9262E-09  0.1010E-01  0.1010E-01
    -11.015  0.8891E-01  0.8891E-01  0.4040E-01  0.4040E-01
    -10.674  0.0000E+00  0.0000E+00  0.4040E-01  0.4040E-01
    -10.333  0.0000E+00  0.0000E+00  0.4040E-01  0.4040E-01
     -9.992  0.0000E+00  0.0000E+00  0.4040E-01  0.4040E-01
     -9.652  0.0000E+00  0.0000E+00  0.4040E-01  0.4040E-01
     -9.311  0.0000E+00  0.0000E+00  0.4040E-01  0.4040E-01
     -8.970  0.0000E+00  0.0000E+00  0.4040E-01  0.4040E-01
     -8.629  0.0000E+00  0.0000E+00  0.4040E-01  0.4040E-01
     -8.288  0.0000E+00  0.0000E+00  0.4040E-01  0.4040E-01
     -7.948  0.0000E+00  0.0000E+00  0.4040E-01  0.4040E-01
     -7.607  0.0000E+00  0.0000E+00  0.4040E-01  0.4040E-01
     -7.266  0.0000E+00  0.0000E+00  0.4040E-01  0.4040E-01
     -6.925  0.0000E+00  0.0000E+00  0.4040E-01  0.4040E-01
     -6.584  0.0000E+00  0.0000E+00  0.4040E-01  0.4040E-01
     -6.244  0.0000E+00  0.0000E+00  0.4040E-01  0.4040E-01
     -5.903  0.1204E-02  0.1204E-02  0.4081E-01  0.4081E-01
     -5.562  0.2844E-01  0.2844E-01  0.5051E-01  0.5051E-01
     -5.221  0.0000E+00  0.0000E+00  0.5051E-01  0.5051E-01
     -4.880  0.0000E+00  0.0000E+00  0.5051E-01  0.5051E-01
     -4.540  0.0000E+00  0.0000E+00  0.5051E-01  0.5051E-01
     -4.199  0.0000E+00  0.0000E+00  0.5051E-01  0.5051E-01
     -3.858  0.0000E+00  0.0000E+00  0.5051E-01  0.5051E-01
     -3.517  0.0000E+00  0.0000E+00  0.5051E-01  0.5051E-01
     -3.176  0.0000E+00  0.0000E+00  0.5051E-01  0.5051E-01
     -2.836  0.0000E+00  0.0000E+00  0.5051E-01  0.5051E-01
     -2.495  0.0000E+00  0.0000E+00  0.5051E-01  0.5051E-01
     -2.154  0.0000E+00  0.0000E+00  0.5051E-01  0.5051E-01
     -1.813  0.0000E+00  0.0000E+00  0.5051E-01  0.5051E-01
     -1.472  0.0000E+00  0.0000E+00  0.5051E-01  0.5051E-01
     -1.132  0.0000E+00  0.0000E+00  0.5051E-01  0.5051E-01
     -0.791  0.0000E+00  0.0000E+00  0.5051E-01  0.5051E-01
     -0.450  0.0000E+00  0.0000E+00  0.5051E-01  0.5051E-01
     -0.109  0.0000E+00  0.0000E+00  0.5051E-01  0.5051E-01
      0.232  0.0000E+00  0.0000E+00  0.5051E-01  0.5051E-01
      0.572  0.0000E+00  0.0000E+00  0.5051E-01  0.5051E-01
      0.913  0.0000E+00  0.0000E+00  0.5051E-01  0.5051E-01
      1.254  0.0000E+00  0.0000E+00  0.5051E-01  0.5051E-01
      1.595  0.0000E+00  0.0000E+00  0.5051E-01  0.5051E-01
      1.936  0.0000E+00  0.0000E+00  0.5051E-01  0.5051E-01
      2.276  0.0000E+00  0.0000E+00  0.5051E-01  0.5051E-01
      2.617  0.0000E+00  0.0000E+00  0.5051E-01  0.5051E-01
      2.958  0.0000E+00  0.0000E+00  0.5051E-01  0.5051E-01
      3.299  0.6507E-01  0.6507E-01  0.7268E-01  0.7268E-01
      3.640  0.2385E-01  0.2385E-01  0.8081E-01  0.8081E-01
      3.980  0.0000E+00  0.0000E+00  0.8081E-01  0.8081E-01
      4.321  0.0000E+00  0.0000E+00  0.8081E-01  0.8081E-01
      4.662  0.3393E-08  0.3393E-08  0.8081E-01  0.8081E-01
      5.003  0.8892E-01  0.8892E-01  0.1111E+00  0.1111E+00
      5.344  0.2602E-01  0.2602E-01  0.1200E+00  0.1200E+00
      5.684  0.6290E-01  0.6290E-01  0.1414E+00  0.1414E+00
      6.025  0.0000E+00  0.0000E+00  0.1414E+00  0.1414E+00
      6.366  0.0000E+00  0.0000E+00  0.1414E+00  0.1414E+00
      6.707  0.0000E+00  0.0000E+00  0.1414E+00  0.1414E+00
      7.048  0.0000E+00  0.0000E+00  0.1414E+00  0.1414E+00
      7.388  0.0000E+00  0.0000E+00  0.1414E+00  0.1414E+00
      7.729  0.0000E+00  0.0000E+00  0.1414E+00  0.1414E+00
      8.070  0.0000E+00  0.0000E+00  0.1414E+00  0.1414E+00
      8.411  0.0000E+00  0.0000E+00  0.1414E+00  0.1414E+00
      8.752  0.0000E+00  0.0000E+00  0.1414E+00  0.1414E+00
      9.092  0.0000E+00  0.0000E+00  0.1414E+00  0.1414E+00
      9.433  0.2647E-02  0.2646E-02  0.1423E+00  0.1423E+00
      9.774  0.2699E-01  0.2699E-01  0.1515E+00  0.1515E+00
     10.115  0.0000E+00  0.0000E+00  0.1515E+00  0.1515E+00
     10.456  0.0000E+00  0.0000E+00  0.1515E+00  0.1515E+00
     10.796  0.0000E+00  0.0000E+00  0.1515E+00  0.1515E+00
     11.137  0.0000E+00  0.0000E+00  0.1515E+00  0.1515E+00
     11.478  0.0000E+00  0.0000E+00  0.1515E+00  0.1515E+00
     11.819  0.0000E+00  0.0000E+00  0.1515E+00  0.1515E+00
     12.160  0.0000E+00  0.0000E+00  0.1515E+00  0.1515E+00
     12.500  0.0000E+00  0.0000E+00  0.1515E+00  0.1515E+00
     12.841  0.0000E+00  0.0000E+00  0.1515E+00  0.1515E+00
     13.182  0.0000E+00  0.0000E+00  0.1515E+00  0.1515E+00
     13.523  0.0000E+00  0.0000E+00  0.1515E+00  0.1515E+00
     13.864  0.6746E-02  0.6746E-02  0.1538E+00  0.1538E+00
     14.204  0.8217E-01  0.8217E-01  0.1818E+00  0.1818E+00
     14.545  0.8099E-01  0.8099E-01  0.2094E+00  0.2094E+00
     14.886  0.7930E-02  0.7931E-02  0.2121E+00  0.2121E+00
     15.227  0.0000E+00  0.0000E+00  0.2121E+00  0.2121E+00
     15.568  0.0000E+00  0.0000E+00  0.2121E+00  0.2121E+00
     15.908  0.0000E+00  0.0000E+00  0.2121E+00  0.2121E+00
     16.249  0.0000E+00  0.0000E+00  0.2121E+00  0.2121E+00
     16.590  0.0000E+00  0.0000E+00  0.2121E+00  0.2121E+00
     16.931  0.1294E-11  0.1293E-11  0.2121E+00  0.2121E+00
     17.272  0.5921E-01  0.5921E-01  0.2323E+00  0.2323E+00
     17.612  0.0000E+00  0.0000E+00  0.2323E+00  0.2323E+00
     17.953  0.0000E+00  0.0000E+00  0.2323E+00  0.2323E+00
     18.294  0.6659E-08  0.6650E-08  0.2323E+00  0.2323E+00
     18.635  0.2964E-01  0.2964E-01  0.2424E+00  0.2424E+00
     18.976  0.6238E-07  0.6238E-07  0.2424E+00  0.2424E+00
     19.316  0.8892E-01  0.8892E-01  0.2727E+00  0.2727E+00
     19.657  0.0000E+00  0.0000E+00  0.2727E+00  0.2727E+00
     19.998  0.0000E+00  0.0000E+00  0.2727E+00  0.2727E+00
     20.339  0.0000E+00  0.0000E+00  0.2727E+00  0.2727E+00
     20.680  0.2599E-02  0.2599E-02  0.2736E+00  0.2736E+00
     21.020  0.8632E-01  0.8632E-01  0.3030E+00  0.3030E+00
     21.361  0.0000E+00  0.0000E+00  0.3030E+00  0.3030E+00
     21.702  0.0000E+00  0.0000E+00  0.3030E+00  0.3030E+00
     22.043  0.4558E-01  0.4558E-01  0.3186E+00  0.3186E+00
     22.384  0.1370E-01  0.1370E-01  0.3232E+00  0.3232E+00
     22.724  0.0000E+00  0.0000E+00  0.3232E+00  0.3232E+00
     23.065  0.0000E+00  0.0000E+00  0.3232E+00  0.3232E+00
     23.406  0.0000E+00  0.0000E+00  0.3232E+00  0.3232E+00
     23.747  0.0000E+00  0.0000E+00  0.3232E+00  0.3232E+00
     24.088  0.0000E+00  0.0000E+00  0.3232E+00  0.3232E+00
     24.428  0.0000E+00  0.0000E+00  0.3232E+00  0.3232E+00
     24.769  0.6603E-02  0.6602E-02  0.3255E+00  0.3255E+00
     25.110  0.8231E-01  0.8232E-01  0.3535E+00  0.3535E+00
     25.451  0.0000E+00  0.0000E+00  0.3535E+00  0.3535E+00
     25.792  0.0000E+00  0.0000E+00  0.3535E+00  0.3535E+00
     26.132  0.1292E-01  0.1292E-01  0.3579E+00  0.3579E+00
     26.473  0.7600E-01  0.7600E-01  0.3838E+00  0.3838E+00
     26.814  0.1737E-01  0.1737E-01  0.3898E+00  0.3898E+00
     27.155  0.7155E-01  0.7155E-01  0.4141E+00  0.4141E+00
     27.496  0.4144E-01  0.4144E-01  0.4283E+00  0.4283E+00
     27.836  0.1783E-01  0.1783E-01  0.4343E+00  0.4343E+00
     28.177  0.0000E+00  0.0000E+00  0.4343E+00  0.4343E+00
     28.518  0.0000E+00  0.0000E+00  0.4343E+00  0.4343E+00
     28.859  0.9872E-16  0.9872E-16  0.4343E+00  0.4343E+00
     29.200  0.9318E-01  0.9318E-01  0.4661E+00  0.4661E+00
     29.540  0.2150E-01  0.2151E-01  0.4747E+00  0.4747E+00
     29.881  0.0000E+00  0.0000E+00  0.4747E+00  0.4747E+00
     30.222  0.2970E-10  0.2970E-10  0.4747E+00  0.4747E+00
     30.563  0.8889E-01  0.8889E-01  0.5050E+00  0.5050E+00
     30.904  0.0000E+00  0.0000E+00  0.5051E+00  0.5051E+00
     31.244  0.0000E+00  0.0000E+00  0.5051E+00  0.5051E+00
     31.585  0.2552E-10  0.2551E-10  0.5051E+00  0.5051E+00
     31.926  0.8889E-01  0.8889E-01  0.5353E+00  0.5353E+00
     32.267  0.6828E-01  0.6828E-01  0.5586E+00  0.5586E+00
     32.608  0.2064E-01  0.2064E-01  0.5657E+00  0.5657E+00
     32.948  0.1187E-01  0.1187E-01  0.5697E+00  0.5697E+00
     33.289  0.4741E-01  0.4741E-01  0.5859E+00  0.5859E+00
     33.630  0.0000E+00  0.0000E+00  0.5859E+00  0.5859E+00
     33.971  0.0000E+00  0.0000E+00  0.5859E+00  0.5859E+00
     34.312  0.1884E-01  0.1883E-01  0.5923E+00  0.5923E+00
     34.652  0.1080E-01  0.1081E-01  0.5960E+00  0.5960E+00
     34.993  0.3949E-16  0.3949E-16  0.5960E+00  0.5960E+00
     35.334  0.5632E-01  0.5632E-01  0.6152E+00  0.6152E+00
     35.675  0.2954E-02  0.2954E-02  0.6162E+00  0.6162E+00
     36.016  0.0000E+00  0.0000E+00  0.6162E+00  0.6162E+00
     36.356  0.0000E+00  0.0000E+00  0.6162E+00  0.6162E+00
     36.697  0.0000E+00  0.0000E+00  0.6162E+00  0.6162E+00
     37.038  0.0000E+00  0.0000E+00  0.6162E+00  0.6162E+00
     37.379  0.0000E+00  0.0000E+00  0.6162E+00  0.6162E+00
     37.720  0.4426E-01  0.4426E-01  0.6312E+00  0.6312E+00
     38.060  0.4466E-01  0.4466E-01  0.6465E+00  0.6465E+00
     38.401  0.0000E+00  0.0000E+00  0.6465E+00  0.6465E+00
     38.742  0.0000E+00  0.0000E+00  0.6465E+00  0.6465E+00
     39.083  0.0000E+00  0.0000E+00  0.6465E+00  0.6465E+00
     39.424  0.0000E+00  0.0000E+00  0.6465E+00  0.6465E+00
     39.764  0.0000E+00  0.0000E+00  0.6465E+00  0.6465E+00
     40.105  0.0000E+00  0.0000E+00  0.6465E+00  0.6465E+00
     40.446  0.0000E+00  0.0000E+00  0.6465E+00  0.6465E+00
     40.787  0.2485E-03  0.2485E-03  0.6465E+00  0.6465E+00
     41.128  0.2939E-01  0.2939E-01  0.6566E+00  0.6566E+00
     41.468  0.0000E+00  0.0000E+00  0.6566E+00  0.6566E+00
     41.809  0.0000E+00  0.0000E+00  0.6566E+00  0.6566E+00
     42.150  0.0000E+00  0.0000E+00  0.6566E+00  0.6566E+00
     42.491  0.0000E+00  0.0000E+00  0.6566E+00  0.6566E+00
     42.832  0.0000E+00  0.0000E+00  0.6566E+00  0.6566E+00
     43.172  0.0000E+00  0.0000E+00  0.6566E+00  0.6566E+00
     43.513  0.0000E+00  0.0000E+00  0.6566E+00  0.6566E+00
     43.854  0.0000E+00  0.0000E+00  0.6566E+00  0.6566E+00
     44.195  0.4055E-02  0.4055E-02  0.6579E+00  0.6579E+00
     44.536  0.8486E-01  0.8486E-01  0.6869E+00  0.6869E+00
     44.876  0.3262E-10  0.3262E-10  0.6869E+00  0.6869E+00
     45.217  0.8889E-01  0.8889E-01  0.7172E+00  0.7172E+00
     45.558  0.0000E+00  0.0000E+00  0.7172E+00  0.7172E+00
     45.899  0.0000E+00  0.0000E+00  0.7172E+00  0.7172E+00
     46.240  0.5675E-01  0.5675E-01  0.7365E+00  0.7365E+00
     46.580  0.9137E-01  0.9137E-01  0.7677E+00  0.7677E+00
     46.921  0.0000E+00  0.0000E+00  0.7677E+00  0.7677E+00
     47.262  0.3981E-03  0.3980E-03  0.7678E+00  0.7678E+00
     47.603  0.6465E-01  0.6465E-01  0.7898E+00  0.7898E+00
     47.944  0.5384E-01  0.5384E-01  0.8082E+00  0.8082E+00
     48.285  0.4915E-01  0.4915E-01  0.8249E+00  0.8249E+00
     48.625  0.6908E-01  0.6908E-01  0.8485E+00  0.8485E+00
     48.966  0.0000E+00  0.0000E+00  0.8485E+00  0.8485E+00
     49.307  0.0000E+00  0.0000E+00  0.8485E+00  0.8485E+00
     49.648  0.0000E+00  0.0000E+00  0.8485E+00  0.8485E+00
     49.989  0.0000E+00  0.0000E+00  0.8485E+00  0.8485E+00
     50.329  0.0000E+00  0.0000E+00  0.8485E+00  0.8485E+00
     50.670  0.2851E-01  0.2851E-01  0.8582E+00  0.8582E+00
     51.011  0.1005E+00  0.1005E+00  0.8925E+00  0.8925E+00
     51.352  0.1917E-01  0.1917E-01  0.8990E+00  0.8990E+00
     51.693  0.0000E+00  0.0000E+00  0.8990E+00  0.8990E+00
     52.033  0.0000E+00  0.0000E+00  0.8990E+00  0.8990E+00
     52.374  0.6417E-15  0.6384E-15  0.8990E+00  0.8990E+00
     52.715  0.9530E-01  0.9530E-01  0.9315E+00  0.9315E+00
     53.056  0.8024E-01  0.8024E-01  0.9596E+00  0.9596E+00
     53.397  0.0000E+00  0.0000E+00  0.9596E+00  0.9596E+00
     53.737  0.1162E-03  0.1162E-03  0.9596E+00  0.9596E+00
     54.078  0.8880E-01  0.8880E-01  0.9899E+00  0.9899E+00
     54.419  0.0000E+00  0.0000E+00  0.9899E+00  0.9899E+00
     54.760  0.0000E+00  0.0000E+00  0.9899E+00  0.9899E+00
     55.101  0.3841E-02  0.3841E-02  0.9912E+00  0.9912E+00
     55.441  0.1536E+00  0.1536E+00  0.1044E+01  0.1044E+01
     55.782  0.1389E+00  0.1389E+00  0.1091E+01  0.1091E+01
     56.123  0.2780E-12  0.2780E-12  0.1091E+01  0.1091E+01
     56.464  0.8866E-01  0.8866E-01  0.1121E+01  0.1121E+01
     56.805  0.3033E-02  0.3032E-02  0.1122E+01  0.1122E+01
     57.145  0.4264E-01  0.4264E-01  0.1137E+01  0.1137E+01
     57.486  0.1361E-01  0.1361E-01  0.1141E+01  0.1141E+01
     57.827  0.0000E+00  0.0000E+00  0.1141E+01  0.1141E+01
     58.168  0.3973E-02  0.3972E-02  0.1143E+01  0.1143E+01
     58.509  0.2567E-01  0.2567E-01  0.1152E+01  0.1152E+01
     58.849  0.5928E-01  0.5928E-01  0.1172E+01  0.1172E+01
     59.190  0.0000E+00  0.0000E+00  0.1172E+01  0.1172E+01
     59.531  0.0000E+00  0.0000E+00  0.1172E+01  0.1172E+01
     59.872  0.0000E+00  0.0000E+00  0.1172E+01  0.1172E+01
     60.213  0.0000E+00  0.0000E+00  0.1172E+01  0.1172E+01
     60.553  0.0000E+00  0.0000E+00  0.1172E+01  0.1172E+01
     60.894  0.0000E+00  0.0000E+00  0.1172E+01  0.1172E+01
     61.235  0.6713E-06  0.6712E-06  0.1172E+01  0.1172E+01
     61.576  0.8892E-01  0.8892E-01  0.1202E+01  0.1202E+01
     61.917  0.0000E+00  0.0000E+00  0.1202E+01  0.1202E+01
     62.257  0.2557E-04  0.2557E-04  0.1202E+01  0.1202E+01
     62.598  0.1032E+00  0.1032E+00  0.1237E+01  0.1237E+01
     62.939  0.1532E-01  0.1532E-01  0.1242E+01  0.1242E+01
     63.280  0.0000E+00  0.0000E+00  0.1242E+01  0.1242E+01
     63.621  0.0000E+00  0.0000E+00  0.1242E+01  0.1242E+01
     63.961  0.0000E+00  0.0000E+00  0.1242E+01  0.1242E+01
     64.302  0.8226E-17  0.8226E-17  0.1242E+01  0.1242E+01
     64.643  0.2781E-01  0.2781E-01  0.1252E+01  0.1252E+01
     64.984  0.1827E-02  0.1829E-02  0.1253E+01  0.1253E+01
     65.325  0.0000E+00  0.0000E+00  0.1253E+01  0.1253E+01
     65.665  0.0000E+00  0.0000E+00  0.1253E+01  0.1253E+01
     66.006  0.0000E+00  0.0000E+00  0.1253E+01  0.1253E+01
     66.347  0.1316E-16  0.1316E-16  0.1253E+01  0.1253E+01
     66.688  0.5540E-01  0.5540E-01  0.1271E+01  0.1271E+01
     67.029  0.6316E-01  0.6316E-01  0.1293E+01  0.1293E+01
     67.369  0.0000E+00  0.0000E+00  0.1293E+01  0.1293E+01
     67.710  0.0000E+00  0.0000E+00  0.1293E+01  0.1293E+01
     68.051  0.0000E+00  0.0000E+00  0.1293E+01  0.1293E+01
     68.392  0.0000E+00  0.0000E+00  0.1293E+01  0.1293E+01
     68.733  0.0000E+00  0.0000E+00  0.1293E+01  0.1293E+01
     69.073  0.0000E+00  0.0000E+00  0.1293E+01  0.1293E+01
     69.414  0.0000E+00  0.0000E+00  0.1293E+01  0.1293E+01
     69.755  0.0000E+00  0.0000E+00  0.1293E+01  0.1293E+01
     70.096  0.0000E+00  0.0000E+00  0.1293E+01  0.1293E+01
     70.437  0.0000E+00  0.0000E+00  0.1293E+01  0.1293E+01
     70.777  0.0000E+00  0.0000E+00  0.1293E+01  0.1293E+01
     71.118  0.0000E+00  0.0000E+00  0.1293E+01  0.1293E+01
     71.459  0.0000E+00  0.0000E+00  0.1293E+01  0.1293E+01
     71.45896920    -30.78132606  301      3.72477359      1.00000000
    -30.781  0.0000E+00  0.0000E+00  0.0000E+00  0.0000E+00  0.0000E+00  0.0000E+00  0.0000E+00  0.0000E+00  0.0000E+00  0.0000E+00  0.0000E+00  0.0000E+00  0.0000E+00  0.0000E+00  0.0000E+00  0.0000E+00  0.0000E+00  0.0000E+00
    -30.441  0.0000E+00  0.0000E+00  0.0000E+00  0.0000E+00  0.0000E+00  0.0000E+00  0.0000E+00  0.0000E+00  0.0000E+00  0.0000E+00  0.0000E+00  0.0000E+00  0.0000E+00  0.0000E+00  0.0000E+00  0.0000E+00  0.0000E+00  0.0000E+00
    -30.100  0.0000E+00  0.0000E+00  0.0000E+00  0.0000E+00  0.0000E+00  0.0000E+00  0.0000E+00  0.0000E+00  0.0000E+00  0.0000E+00  0.0000E+00  0.0000E+00  0.0000E+00  0.0000E+00  0.0000E+00  0.0000E+00  0.0000E+00  0.0000E+00
    -29.759  0.0000E+00  0.0000E+00  0.0000E+00  0.0000E+00  0.0000E+00  0.0000E+00  0.0000E+00  0.0000E+00  0.0000E+00  0.0000E+00  0.0000E+00  0.0000E+00  0.0000E+00  0.0000E+00  0.0000E+00  0.0000E+00  0.0000E+00  0.0000E+00
    -29.418  0.0000E+00  0.0000E+00  0.0000E+00  0.0000E+00  0.0000E+00  0.0000E+00  0.0000E+00  0.0000E+00  0.0000E+00  0.0000E+00  0.0000E+00  0.0000E+00  0.0000E+00  0.0000E+00  0.0000E+00  0.0000E+00  0.0000E+00  0.0000E+00
    -29.077  0.0000E+00  0.0000E+00  0.0000E+00  0.0000E+00  0.0000E+00  0.0000E+00  0.0000E+00  0.0000E+00  0.0000E+00  0.0000E+00  0.0000E+00  0.0000E+00  0.0000E+00  0.0000E+00  0.0000E+00  0.0000E+00  0.0000E+00  0.0000E+00
    -28.737  0.0000E+00  0.0000E+00  0.0000E+00  0.0000E+00  0.0000E+00  0.0000E+00  0.0000E+00  0.0000E+00  0.0000E+00  0.0000E+00  0.0000E+00  0.0000E+00  0.0000E+00  0.0000E+00  0.0000E+00  0.0000E+00  0.0000E+00  0.0000E+00
    -28.396  0.0000E+00  0.0000E+00  0.0000E+00  0.0000E+00  0.0000E+00  0.0000E+00  0.0000E+00  0.0000E+00  0.0000E+00  0.0000E+00  0.0000E+00  0.0000E+00  0.0000E+00  0.0000E+00  0.0000E+00  0.0000E+00  0.0000E+00  0.0000E+00
    -28.055  0.0000E+00  0.0000E+00  0.0000E+00  0.0000E+00  0.0000E+00  0.0000E+00  0.0000E+00  0.0000E+00  0.0000E+00  0.0000E+00  0.0000E+00  0.0000E+00  0.0000E+00  0.0000E+00  0.0000E+00  0.0000E+00  0.0000E+00  0.0000E+00
    -27.714  0.0000E+00  0.0000E+00  0.0000E+00  0.0000E+00  0.0000E+00  0.0000E+00  0.0000E+00  0.0000E+00  0.0000E+00  0.0000E+00  0.0000E+00  0.0000E+00  0.0000E+00  0.0000E+00  0.0000E+00  0.0000E+00  0.0000E+00  0.0000E+00
    -27.373  0.0000E+00  0.0000E+00  0.0000E+00  0.0000E+00  0.0000E+00  0.0000E+00  0.0000E+00  0.0000E+00  0.0000E+00  0.0000E+00  0.0000E+00  0.0000E+00  0.0000E+00  0.0000E+00  0.0000E+00  0.0000E+00  0.0000E+00  0.0000E+00
    -27.033  0.0000E+00  0.0000E+00  0.0000E+00  0.0000E+00  0.0000E+00  0.0000E+00  0.0000E+00  0.0000E+00  0.0000E+00  0.0000E+00  0.0000E+00  0.0000E+00  0.0000E+00  0.0000E+00  0.0000E+00  0.0000E+00  0.0000E+00  0.0000E+00
    -26.692  0.0000E+00  0.0000E+00  0.0000E+00  0.0000E+00  0.0000E+00  0.0000E+00  0.0000E+00  0.0000E+00  0.0000E+00  0.0000E+00  0.0000E+00  0.0000E+00  0.0000E+00  0.0000E+00  0.0000E+00  0.0000E+00  0.0000E+00  0.0000E+00
    -26.351  0.1226E-08  0.1226E-08  0.1537E-25  0.1723E-25  0.3675E-27  0.1168E-26  0.5684E-25  0.6116E-25  0.2694E-26  0.1392E-26  0.1578E-26  0.9532E-27  0.7767E-27  0.1202E-26  0.8903E-26  0.8027E-26  0.4401E-27  0.4160E-27
    -26.010  0.2863E+01  0.2863E+01  0.3590E-16  0.4022E-16  0.8581E-18  0.2728E-17  0.1327E-15  0.1428E-15  0.6291E-17  0.3251E-17  0.3685E-17  0.2226E-17  0.1813E-17  0.2806E-17  0.2079E-16  0.1874E-16  0.1027E-17  0.9714E-18
    -25.669  0.0000E+00  0.0000E+00  0.0000E+00  0.0000E+00  0.0000E+00  0.0000E+00  0.0000E+00  0.0000E+00  0.0000E+00  0.0000E+00  0.0000E+00  0.0000E+00  0.0000E+00  0.0000E+00  0.0000E+00  0.0000E+00  0.0000E+00  0.0000E+00
    -25.329  0.0000E+00  0.0000E+00  0.0000E+00  0.0000E+00  0.0000E+00  0.0000E+00  0.0000E+00  0.0000E+00  0.0000E+00  0.0000E+00  0.0000E+00  0.0000E+00  0.0000E+00  0.0000E+00  0.0000E+00  0.0000E+00  0.0000E+00  0.0000E+00
    -24.988  0.0000E+00  0.0000E+00  0.0000E+00  0.0000E+00  0.0000E+00  0.0000E+00  0.0000E+00  0.0000E+00  0.0000E+00  0.0000E+00  0.0000E+00  0.0000E+00  0.0000E+00  0.0000E+00  0.0000E+00  0.0000E+00  0.0000E+00  0.0000E+00
    -24.647  0.0000E+00  0.0000E+00  0.0000E+00  0.0000E+00  0.0000E+00  0.0000E+00  0.0000E+00  0.0000E+00  0.0000E+00  0.0000E+00  0.0000E+00  0.0000E+00  0.0000E+00  0.0000E+00  0.0000E+00  0.0000E+00  0.0000E+00  0.0000E+00
    -24.306  0.0000E+00  0.0000E+00  0.0000E+00  0.0000E+00  0.0000E+00  0.0000E+00  0.0000E+00  0.0000E+00  0.0000E+00  0.0000E+00  0.0000E+00  0.0000E+00  0.0000E+00  0.0000E+00  0.0000E+00  0.0000E+00  0.0000E+00  0.0000E+00
    -23.965  0.0000E+00  0.0000E+00  0.0000E+00  0.0000E+00  0.0000E+00  0.0000E+00  0.0000E+00  0.0000E+00  0.0000E+00  0.0000E+00  0.0000E+00  0.0000E+00  0.0000E+00  0.0000E+00  0.0000E+00  0.0000E+00  0.0000E+00  0.0000E+00
    -23.625  0.0000E+00  0.0000E+00  0.0000E+00  0.0000E+00  0.0000E+00  0.0000E+00  0.0000E+00  0.0000E+00  0.0000E+00  0.0000E+00  0.0000E+00  0.0000E+00  0.0000E+00  0.0000E+00  0.0000E+00  0.0000E+00  0.0000E+00  0.0000E+00
    -23.284  0.0000E+00  0.0000E+00  0.0000E+00  0.0000E+00  0.0000E+00  0.0000E+00  0.0000E+00  0.0000E+00  0.0000E+00  0.0000E+00  0.0000E+00  0.0000E+00  0.0000E+00  0.0000E+00  0.0000E+00  0.0000E+00  0.0000E+00  0.0000E+00
    -22.943  0.0000E+00  0.0000E+00  0.0000E+00  0.0000E+00  0.0000E+00  0.0000E+00  0.0000E+00  0.0000E+00  0.0000E+00  0.0000E+00  0.0000E+00  0.0000E+00  0.0000E+00  0.0000E+00  0.0000E+00  0.0000E+00  0.0000E+00  0.0000E+00
    -22.602  0.0000E+00  0.0000E+00  0.0000E+00  0.0000E+00  0.0000E+00  0.0000E+00  0.0000E+00  0.0000E+00  0.0000E+00  0.0000E+00  0.0000E+00  0.0000E+00  0.0000E+00  0.0000E+00  0.0000E+00  0.0000E+00  0.0000E+00  0.0000E+00
    -22.261  0.0000E+00  0.0000E+00  0.0000E+00  0.0000E+00  0.0000E+00  0.0000E+00  0.0000E+00  0.0000E+00  0.0000E+00  0.0000E+00  0.0000E+00  0.0000E+00  0.0000E+00  0.0000E+00  0.0000E+00  0.0000E+00  0.0000E+00  0.0000E+00
    -21.921  0.0000E+00  0.0000E+00  0.0000E+00  0.0000E+00  0.0000E+00  0.0000E+00  0.0000E+00  0.0000E+00  0.0000E+00  0.0000E+00  0.0000E+00  0.0000E+00  0.0000E+00  0.0000E+00  0.0000E+00  0.0000E+00  0.0000E+00  0.0000E+00
    -21.580  0.0000E+00  0.0000E+00  0.0000E+00  0.0000E+00  0.0000E+00  0.0000E+00  0.0000E+00  0.0000E+00  0.0000E+00  0.0000E+00  0.0000E+00  0.0000E+00  0.0000E+00  0.0000E+00  0.0000E+00  0.0000E+00  0.0000E+00  0.0000E+00
    -21.239  0.0000E+00  0.0000E+00  0.0000E+00  0.0000E+00  0.0000E+00  0.0000E+00  0.0000E+00  0.0000E+00  0.0000E+00  0.0000E+00  0.0000E+00  0.0000E+00  0.0000E+00  0.0000E+00  0.0000E+00  0.0000E+00  0.0000E+00  0.0000E+00
    -20.898  0.0000E+00  0.0000E+00  0.0000E+00  0.0000E+00  0.0000E+00  0.0000E+00  0.0000E+00  0.0000E+00  0.0000E+00  0.0000E+00  0.0000E+00  0.0000E+00  0.0000E+00  0.0000E+00  0.0000E+00  0.0000E+00  0.0000E+00  0.0000E+00
    -20.557  0.0000E+00  0.0000E+00  0.0000E+00  0.0000E+00  0.0000E+00  0.0000E+00  0.0000E+00  0.0000E+00  0.0000E+00  0.0000E+00  0.0000E+00  0.0000E+00  0.0000E+00  0.0000E+00  0.0000E+00  0.0000E+00  0.0000E+00  0.0000E+00
    -20.216  0.0000E+00  0.0000E+00  0.0000E+00  0.0000E+00  0.0000E+00  0.0000E+00  0.0000E+00  0.0000E+00  0.0000E+00  0.0000E+00  0.0000E+00  0.0000E+00  0.0000E+00  0.0000E+00  0.0000E+00  0.0000E+00  0.0000E+00  0.0000E+00
    -19.876  0.0000E+00  0.0000E+00  0.0000E+00  0.0000E+00  0.0000E+00  0.0000E+00  0.0000E+00  0.0000E+00  0.0000E+00  0.0000E+00  0.0000E+00  0.0000E+00  0.0000E+00  0.0000E+00  0.0000E+00  0.0000E+00  0.0000E+00  0.0000E+00
    -19.535  0.0000E+00  0.0000E+00  0.0000E+00  0.0000E+00  0.0000E+00  0.0000E+00  0.0000E+00  0.0000E+00  0.0000E+00  0.0000E+00  0.0000E+00  0.0000E+00  0.0000E+00  0.0000E+00  0.0000E+00  0.0000E+00  0.0000E+00  0.0000E+00
    -19.194  0.0000E+00  0.0000E+00  0.0000E+00  0.0000E+00  0.0000E+00  0.0000E+00  0.0000E+00  0.0000E+00  0.0000E+00  0.0000E+00  0.0000E+00  0.0000E+00  0.0000E+00  0.0000E+00  0.0000E+00  0.0000E+00  0.0000E+00  0.0000E+00
    -18.853  0.0000E+00  0.0000E+00  0.0000E+00  0.0000E+00  0.0000E+00  0.0000E+00  0.0000E+00  0.0000E+00  0.0000E+00  0.0000E+00  0.0000E+00  0.0000E+00  0.0000E+00  0.0000E+00  0.0000E+00  0.0000E+00  0.0000E+00  0.0000E+00
    -18.512  0.0000E+00  0.0000E+00  0.0000E+00  0.0000E+00  0.0000E+00  0.0000E+00  0.0000E+00  0.0000E+00  0.0000E+00  0.0000E+00  0.0000E+00  0.0000E+00  0.0000E+00  0.0000E+00  0.0000E+00  0.0000E+00  0.0000E+00  0.0000E+00
    -18.172  0.0000E+00  0.0000E+00  0.0000E+00  0.0000E+00  0.0000E+00  0.0000E+00  0.0000E+00  0.0000E+00  0.0000E+00  0.0000E+00  0.0000E+00  0.0000E+00  0.0000E+00  0.0000E+00  0.0000E+00  0.0000E+00  0.0000E+00  0.0000E+00
    -17.831  0.0000E+00  0.0000E+00  0.0000E+00  0.0000E+00  0.0000E+00  0.0000E+00  0.0000E+00  0.0000E+00  0.0000E+00  0.0000E+00  0.0000E+00  0.0000E+00  0.0000E+00  0.0000E+00  0.0000E+00  0.0000E+00  0.0000E+00  0.0000E+00
    -17.490  0.0000E+00  0.0000E+00  0.0000E+00  0.0000E+00  0.0000E+00  0.0000E+00  0.0000E+00  0.0000E+00  0.0000E+00  0.0000E+00  0.0000E+00  0.0000E+00  0.0000E+00  0.0000E+00  0.0000E+00  0.0000E+00  0.0000E+00  0.0000E+00
    -17.149  0.0000E+00  0.0000E+00  0.0000E+00  0.0000E+00  0.0000E+00  0.0000E+00  0.0000E+00  0.0000E+00  0.0000E+00  0.0000E+00  0.0000E+00  0.0000E+00  0.0000E+00  0.0000E+00  0.0000E+00  0.0000E+00  0.0000E+00  0.0000E+00
    -16.808  0.0000E+00  0.0000E+00  0.0000E+00  0.0000E+00  0.0000E+00  0.0000E+00  0.0000E+00  0.0000E+00  0.0000E+00  0.0000E+00  0.0000E+00  0.0000E+00  0.0000E+00  0.0000E+00  0.0000E+00  0.0000E+00  0.0000E+00  0.0000E+00
    -16.468  0.0000E+00  0.0000E+00  0.0000E+00  0.0000E+00  0.0000E+00  0.0000E+00  0.0000E+00  0.0000E+00  0.0000E+00  0.0000E+00  0.0000E+00  0.0000E+00  0.0000E+00  0.0000E+00  0.0000E+00  0.0000E+00  0.0000E+00  0.0000E+00
    -16.127  0.0000E+00  0.0000E+00  0.0000E+00  0.0000E+00  0.0000E+00  0.0000E+00  0.0000E+00  0.0000E+00  0.0000E+00  0.0000E+00  0.0000E+00  0.0000E+00  0.0000E+00  0.0000E+00  0.0000E+00  0.0000E+00  0.0000E+00  0.0000E+00
    -15.786  0.0000E+00  0.0000E+00  0.0000E+00  0.0000E+00  0.0000E+00  0.0000E+00  0.0000E+00  0.0000E+00  0.0000E+00  0.0000E+00  0.0000E+00  0.0000E+00  0.0000E+00  0.0000E+00  0.0000E+00  0.0000E+00  0.0000E+00  0.0000E+00
    -15.445  0.0000E+00  0.0000E+00  0.0000E+00  0.0000E+00  0.0000E+00  0.0000E+00  0.0000E+00  0.0000E+00  0.0000E+00  0.0000E+00  0.0000E+00  0.0000E+00  0.0000E+00  0.0000E+00  0.0000E+00  0.0000E+00  0.0000E+00  0.0000E+00
    -15.104  0.0000E+00  0.0000E+00  0.0000E+00  0.0000E+00  0.0000E+00  0.0000E+00  0.0000E+00  0.0000E+00  0.0000E+00  0.0000E+00  0.0000E+00  0.0000E+00  0.0000E+00  0.0000E+00  0.0000E+00  0.0000E+00  0.0000E+00  0.0000E+00
    -14.764  0.0000E+00  0.0000E+00  0.0000E+00  0.0000E+00  0.0000E+00  0.0000E+00  0.0000E+00  0.0000E+00  0.0000E+00  0.0000E+00  0.0000E+00  0.0000E+00  0.0000E+00  0.0000E+00  0.0000E+00  0.0000E+00  0.0000E+00  0.0000E+00
    -14.423  0.0000E+00  0.0000E+00  0.0000E+00  0.0000E+00  0.0000E+00  0.0000E+00  0.0000E+00  0.0000E+00  0.0000E+00  0.0000E+00  0.0000E+00  0.0000E+00  0.0000E+00  0.0000E+00  0.0000E+00  0.0000E+00  0.0000E+00  0.0000E+00
    -14.082  0.0000E+00  0.0000E+00  0.0000E+00  0.0000E+00  0.0000E+00  0.0000E+00  0.0000E+00  0.0000E+00  0.0000E+00  0.0000E+00  0.0000E+00  0.0000E+00  0.0000E+00  0.0000E+00  0.0000E+00  0.0000E+00  0.0000E+00  0.0000E+00
    -13.741  0.0000E+00  0.0000E+00  0.0000E+00  0.0000E+00  0.0000E+00  0.0000E+00  0.0000E+00  0.0000E+00  0.0000E+00  0.0000E+00  0.0000E+00  0.0000E+00  0.0000E+00  0.0000E+00  0.0000E+00  0.0000E+00  0.0000E+00  0.0000E+00