    2    2   99    2
  0.4454554E+02  0.5013216E-09  0.5013216E-09  0.5013216E-09  0.5000000E-15
  1.000000000000000E-004
  CAR 
 unknown system                          
     16      1    128
 
  0.0000000E+00  0.0000000E+00  0.0000000E+00  0.1000000E+01
    1      -26.134040    -26.134040   1.000000   1.000000
    2      -11.157506    -11.157506   1.000000   1.000000
    3      -11.157506    -11.157506   1.000000   1.000000
    4      -11.157505    -11.157505   1.000000   1.000000
    5       -5.841209     -5.841208   1.000000   1.000000
    6        3.276917      3.276917   1.000000   1.000000
    7        3.276917      3.276917   1.000000   1.000000
    8        3.276917      3.276917   1.000000   1.000000
    9        4.852033      4.852034   0.000000   0.000000
   10        4.852034      4.852034   0.000000   0.000000
   11        4.852034      4.852034   0.000000   0.000000
   12        5.349548      5.349548   0.000000   0.000000
   13        5.349548      5.349548   0.000000   0.000000
   14        5.423451      5.423454   0.000000   0.000000
   15        9.480743      9.480751   0.000000   0.000000
   16       13.914281     13.914282   0.000000   0.000000
   17       13.914282     13.914282   0.000000   0.000000
   18       13.914282     13.914282   0.000000   0.000000
   19       14.497623     14.497624   0.000000   0.000000
   20       14.497625     14.497625   0.000000   0.000000
   21       14.497626     14.497627   0.000000   0.000000
   22       17.163844     17.163845   0.000000   0.000000
   23       17.163844     17.163845   0.000000   0.000000
   24       18.472445     18.472455   0.000000   0.000000
   25       19.146192     19.146192   0.000000   0.000000
   26       19.146192     19.146192   0.000000   0.000000
   27       19.146192     19.146193   0.000000   0.000000
   28       20.746525     20.746525   0.000000   0.000000
   29       20.746525     20.746525   0.000000   0.000000
   30       20.746525     20.746525   0.000000   0.000000
   31       22.016826     22.016827   0.000000   0.000000
   32       22.016827     22.016828   0.000000   0.000000
   33       24.820314     24.820317   0.000000   0.000000
   34       24.820317     24.820318   0.000000   0.000000
   35       24.820317     24.820320   0.000000   0.000000
   36       26.169803     26.169803   0.000000   0.000000
   37       26.169804     26.169804   0.000000   0.000000
   38       26.169804     26.169804   0.000000   0.000000
   39       26.844392     26.844392   0.000000   0.000000
   40       26.844392     26.844392   0.000000   0.000000
   41       26.844392     26.844393   0.000000   0.000000
   42       27.313812     27.313818   0.000000   0.000000
   43       27.504753     27.504754   0.000000   0.000000
   44       29.139164     29.139164   0.000000   0.000000
   45       29.139165     29.139165   0.000000   0.000000
   46       29.139165     29.139165   0.000000   0.000000
   47       29.220833     29.220848   0.000000   0.000000
   48       30.440314     30.440315   0.000000   0.000000
   49       30.440315     30.440315   0.000000   0.000000
   50       30.440315     30.440315   0.000000   0.000000
   51       31.804364     31.804367   0.000000   0.000000
   52       31.804366     31.804367   0.000000   0.000000
   53       31.804367     31.804369   0.000000   0.000000
   54       32.240980     32.240982   0.000000   0.000000
   55       32.240981     32.240983   0.000000   0.000000
   56       32.240982     32.240984   0.000000   0.000000
   57       32.978185     32.978185   0.000000   0.000000
   58       32.978186     32.978186   0.000000   0.000000
   59       34.299411     34.299424   0.000000   0.000000
   60       35.275851     35.275851   0.000000   0.000000
   61       35.275851     35.275851   0.000000   0.000000
   62       37.719870     37.719870   0.000000   0.000000
   63       37.719870     37.719870   0.000000   0.000000
   64       37.719870     37.719870   0.000000   0.000000
   65       40.871439     40.871440   0.000000   0.000000
   66       44.254604     44.254606   0.000000   0.000000
   67       44.254606     44.254608   0.000000   0.000000
   68       44.254608     44.254610   0.000000   0.000000
   69       45.094232     45.094232   0.000000   0.000000
   70       45.094233     45.094233   0.000000   0.000000
   71       45.094234     45.094233   0.000000   0.000000
   72       46.227185     46.227185   0.000000   0.000000
   73       46.227186     46.227186   0.000000   0.000000
   74       46.227186     46.227186   0.000000   0.000000
   75       46.473815     46.473814   0.000000   0.000000
   76       46.473815     46.473815   0.000000   0.000000
   77       47.340358     47.340362   0.000000   0.000000
   78       47.612019     47.612021   0.000000   0.000000
   79       47.612020     47.612022   0.000000   0.000000
   80       47.612021     47.612022   0.000000   0.000000
   81       48.024566     48.024588   0.000000   0.000000
   82       48.311432     48.311433   0.000000   0.000000
   83       48.311434     48.311434   0.000000   0.000000
   84       48.311435     48.311435   0.000000   0.000000
   85       50.671801     50.671802   0.000000   0.000000
   86       50.671804     50.671804   0.000000   0.000000
   87       50.983082     50.983083   0.000000   0.000000
   88       50.983083     50.983083   0.000000   0.000000
   89       50.983083     50.983084   0.000000   0.000000
   90       52.646096     52.646101   0.000000   0.000000
   91       52.646098     52.646101   0.000000   0.000000
   92       52.646098     52.646104   0.000000   0.000000
   93       52.760721     52.760722   0.000000   0.000000
   94       52.760722     52.760722   0.000000   0.000000
   95       52.760723     52.760723   0.000000   0.000000
   96       53.843735     53.843735   0.000000   0.000000
   97       53.843736     53.843736   0.000000   0.000000
   98       53.843737     53.843737   0.000000   0.000000
   99       55.161147     55.161147   0.000000   0.000000
  100       55.161148     55.161148   0.000000   0.000000
  101       55.161149     55.161149   0.000000   0.000000
  102       55.266521     55.266522   0.000000   0.000000
  103       55.266523     55.266524   0.000000   0.000000
  104       55.485839     55.485843   0.000000   0.000000
  105       55.485841     55.485844   0.000000   0.000000
  106       55.485842     55.485846   0.000000   0.000000
  107       55.579160     55.579162   0.000000   0.000000
  108       55.579161     55.579163   0.000000   0.000000
  109       56.365949     56.365948   0.000000   0.000000
  110       56.365950     56.365950   0.000000   0.000000
  111       56.365951     56.365951   0.000000   0.000000
  112       56.849372     56.849376   0.000000   0.000000
  113       57.141699     57.141700   0.000000   0.000000
  114       58.206887     58.206889   0.000000   0.000000
  115       58.700243     58.700243   0.000000   0.000000
  116       58.700243     58.700243   0.000000   0.000000
  117       61.387930     61.387931   0.000000   0.000000
  118       61.387930     61.387932   0.000000   0.000000
  119       61.387931     61.387932   0.000000   0.000000
  120       62.379072     62.379073   0.000000   0.000000
  121       62.379074     62.379076   0.000000   0.000000
  122       62.379076     62.379077   0.000000   0.000000
  123       62.599626     62.599631   0.000000   0.000000
  124       64.588460     64.588483   0.000000   0.000000
  125       66.634426     66.634425   0.000000   0.000000
  126       66.634426     66.634426   0.000000   0.000000
  127       66.811681     66.811682   0.000000   0.000000
  128       66.811682     66.811683   0.000000   0.000000
