PROCAR lm decomposed
# of k-points:    1         # of bands:  128         # of ions:    2

 k-point     1 :    0.00000000 0.00000000 0.00000000     weight = 1.00000000

band     1 # energy  -26.13403991 # occ.  1.00000000
 
ion      s     py     pz     px    dxy    dyz    dz2    dxz  x2-y2    tot
    1  0.976  0.000  0.000  0.000  0.000  0.000  0.000  0.000  0.000  0.976
    2  0.000  0.000  0.000  0.000  0.000  0.000  0.000  0.000  0.000  0.000
tot    0.976  0.000  0.000  0.000  0.000  0.000  0.000  0.000  0.000  0.976
 
band     2 # energy  -11.15750560 # occ.  1.00000000
 
ion      s     py     pz     px    dxy    dyz    dz2    dxz  x2-y2    tot
    1  0.000  0.128  0.209  0.590  0.000  0.000  0.000  0.000  0.000  0.928
    2  0.000  0.000  0.000  0.000  0.000  0.000  0.000  0.000  0.000  0.001
tot    0.000  0.128  0.209  0.591  0.000  0.000  0.000  0.000  0.000  0.928
 
band     3 # energy  -11.15750551 # occ.  1.00000000
 
ion      s     py     pz     px    dxy    dyz    dz2    dxz  x2-y2    tot
    1  0.000  0.793  0.067  0.068  0.000  0.000  0.000  0.000  0.000  0.928
    2  0.000  0.001  0.000  0.000  0.000  0.000  0.000  0.000  0.000  0.001
tot    0.000  0.793  0.067  0.068  0.000  0.000  0.000  0.000  0.000  0.928
 
band     4 # energy  -11.15750544 # occ.  1.00000000
 
ion      s     py     pz     px    dxy    dyz    dz2    dxz  x2-y2    tot
    1  0.000  0.007  0.651  0.270  0.000  0.000  0.000  0.000  0.000  0.928
    2  0.000  0.000  0.001  0.000  0.000  0.000  0.000  0.000  0.000  0.001
tot    0.000  0.007  0.652  0.270  0.000  0.000  0.000  0.000  0.000  0.928
 
band     5 # energy   -5.84120858 # occ.  1.00000000
 
ion      s     py     pz     px    dxy    dyz    dz2    dxz  x2-y2    tot
    1  0.014  0.000  0.000  0.000  0.000  0.000  0.000  0.000  0.000  0.014
    2  0.586  0.000  0.000  0.000  0.000  0.000  0.000  0.000  0.000  0.586
tot    0.600  0.000  0.000  0.000  0.000  0.000  0.000  0.000  0.000  0.600
 
band     6 # energy    3.27691711 # occ.  1.00000000
 
ion      s     py     pz     px    dxy    dyz    dz2    dxz  x2-y2    tot
    1  0.000  0.001  0.010  0.003  0.000  0.000  0.000  0.000  0.000  0.014
    2  0.000  0.033  0.309  0.089  0.000  0.000  0.000  0.000  0.000  0.430
tot    0.000  0.034  0.318  0.091  0.000  0.000  0.000  0.000  0.000  0.444
 
band     7 # energy    3.27691719 # occ.  1.00000000
 
ion      s     py     pz     px    dxy    dyz    dz2    dxz  x2-y2    tot
    1  0.000  0.012  0.000  0.001  0.000  0.000  0.000  0.000  0.000  0.014
    2  0.000  0.376  0.007  0.047  0.000  0.000  0.000  0.000  0.000  0.430
tot    0.000  0.388  0.007  0.048  0.000  0.000  0.000  0.000  0.000  0.444
 
band     8 # energy    3.27691724 # occ.  1.00000000
 
ion      s     py     pz     px    dxy    dyz    dz2    dxz  x2-y2    tot
    1  0.000  0.001  0.004  0.009  0.000  0.000  0.000  0.000  0.000  0.014
    2  0.000  0.021  0.114  0.295  0.000  0.000  0.000  0.000  0.000  0.430
tot    0.000  0.022  0.118  0.304  0.000  0.000  0.000  0.000  0.000  0.444
 
band     9 # energy    4.85203273 # occ.  0.00000000
 
ion      s     py     pz     px    dxy    dyz    dz2    dxz  x2-y2    tot
    1  0.000  0.000  0.000  0.000  0.333  0.066  0.000  0.026  0.000  0.425
    2  0.000  0.000  0.000  0.000  0.013  0.003  0.000  0.001  0.000  0.016
tot    0.000  0.000  0.000  0.000  0.345  0.069  0.000  0.027  0.000  0.442
 
band    10 # energy    4.85203356 # occ.  0.00000000
 
ion      s     py     pz     px    dxy    dyz    dz2    dxz  x2-y2    tot
    1  0.000  0.000  0.000  0.000  0.045  0.346  0.000  0.034  0.000  0.425
    2  0.000  0.000  0.000  0.000  0.002  0.013  0.000  0.001  0.000  0.016
tot    0.000  0.000  0.000  0.000  0.046  0.360  0.000  0.035  0.000  0.442
 
band    11 # energy    4.85203363 # occ.  0.00000000
 
ion      s     py     pz     px    dxy    dyz    dz2    dxz  x2-y2    tot
    1  0.000  0.000  0.000  0.000  0.048  0.012  0.000  0.365  0.000  0.425
    2  0.000  0.000  0.000  0.000  0.002  0.000  0.000  0.014  0.000  0.016
tot    0.000  0.000  0.000  0.000  0.050  0.013  0.000  0.379  0.000  0.442
 
band    12 # energy    5.34954798 # occ.  0.00000000
 
ion      s     py     pz     px    dxy    dyz    dz2    dxz  x2-y2    tot
    1  0.000  0.000  0.000  0.000  0.000  0.000  0.504  0.000  0.003  0.507
    2  0.000  0.000  0.000  0.000  0.000  0.000  0.029  0.000  0.000  0.029
tot    0.000  0.000  0.000  0.000  0.000  0.000  0.534  0.000  0.003  0.537
 
band    13 # energy    5.34954812 # occ.  0.00000000
 
ion      s     py     pz     px    dxy    dyz    dz2    dxz  x2-y2    tot
    1  0.000  0.000  0.000  0.000  0.000  0.000  0.003  0.000  0.504  0.507
    2  0.000  0.000  0.000  0.000  0.000  0.000  0.000  0.000  0.029  0.029
tot    0.000  0.000  0.000  0.000  0.000  0.000  0.003  0.000  0.534  0.537
 
band    14 # energy    5.42345060 # occ.  0.00000000
 
ion      s     py     pz     px    dxy    dyz    dz2    dxz  x2-y2    tot
    1  0.132  0.000  0.000  0.000  0.000  0.000  0.000  0.000  0.000  0.132
    2  0.195  0.000  0.000  0.000  0.000  0.000  0.000  0.000  0.000  0.195
tot    0.327  0.000  0.000  0.000  0.000  0.000  0.000  0.000  0.000  0.327
 
band    15 # energy    9.48074327 # occ.  0.00000000
 
ion      s     py     pz     px    dxy    dyz    dz2    dxz  x2-y2    tot
    1  0.000  0.000  0.000  0.000  0.000  0.000  0.000  0.000  0.000  0.000
    2  0.000  0.000  0.000  0.000  0.000  0.000  0.000  0.000  0.000  0.000
tot    0.000  0.000  0.000  0.000  0.000  0.000  0.000  0.000  0.000  0.000
 
band    16 # energy   13.91428127 # occ.  0.00000000
 
ion      s     py     pz     px    dxy    dyz    dz2    dxz  x2-y2    tot
    1  0.000  0.000  0.000  0.000  0.348  0.032  0.000  0.002  0.000  0.382
    2  0.000  0.000  0.000  0.000  0.121  0.011  0.000  0.001  0.000  0.133
tot    0.000  0.000  0.000  0.000  0.469  0.043  0.000  0.003  0.000  0.515
 
band    17 # energy   13.91428174 # occ.  0.00000000
 
ion      s     py     pz     px    dxy    dyz    dz2    dxz  x2-y2    tot
    1  0.000  0.000  0.000  0.000  0.011  0.035  0.000  0.336  0.000  0.382
    2  0.000  0.000  0.000  0.000  0.004  0.012  0.000  0.117  0.000  0.133
tot    0.000  0.000  0.000  0.000  0.015  0.047  0.000  0.453  0.000  0.515
 
band    18 # energy   13.91428179 # occ.  0.00000000
 
ion      s     py     pz     px    dxy    dyz    dz2    dxz  x2-y2    tot
    1  0.000  0.000  0.000  0.000  0.023  0.315  0.000  0.044  0.000  0.382
    2  0.000  0.000  0.000  0.000  0.008  0.110  0.000  0.015  0.000  0.133
tot    0.000  0.000  0.000  0.000  0.031  0.425  0.000  0.059  0.000  0.515
 
band    19 # energy   14.49762329 # occ.  0.00000000
 
ion      s     py     pz     px    dxy    dyz    dz2    dxz  x2-y2    tot
    1  0.000  0.031  0.076  0.046  0.000  0.000  0.000  0.000  0.000  0.153
    2  0.000  0.000  0.000  0.000  0.000  0.000  0.000  0.000  0.000  0.000
tot    0.000  0.031  0.076  0.046  0.000  0.000  0.000  0.000  0.000  0.153
 
band    20 # energy   14.49762526 # occ.  0.00000000
 
ion      s     py     pz     px    dxy    dyz    dz2    dxz  x2-y2    tot
    1  0.000  0.117  0.009  0.027  0.000  0.000  0.000  0.000  0.000  0.153
    2  0.000  0.000  0.000  0.000  0.000  0.000  0.000  0.000  0.000  0.000
tot    0.000  0.117  0.009  0.027  0.000  0.000  0.000  0.000  0.000  0.153
 
band    21 # energy   14.49762592 # occ.  0.00000000
 
ion      s     py     pz     px    dxy    dyz    dz2    dxz  x2-y2    tot
    1  0.000  0.004  0.068  0.080  0.000  0.000  0.000  0.000  0.000  0.153
    2  0.000  0.000  0.000  0.000  0.000  0.000  0.000  0.000  0.000  0.000
tot    0.000  0.004  0.068  0.080  0.000  0.000  0.000  0.000  0.000  0.153
 
band    22 # energy   17.16384374 # occ.  0.00000000
 
ion      s     py     pz     px    dxy    dyz    dz2    dxz  x2-y2    tot
    1  0.000  0.000  0.000  0.000  0.000  0.000  0.370  0.000  0.002  0.372
    2  0.000  0.000  0.000  0.000  0.000  0.000  0.157  0.000  0.001  0.157
tot    0.000  0.000  0.000  0.000  0.000  0.000  0.527  0.000  0.003  0.529
 
band    23 # energy   17.16384429 # occ.  0.00000000
 
ion      s     py     pz     px    dxy    dyz    dz2    dxz  x2-y2    tot
    1  0.000  0.000  0.000  0.000  0.000  0.000  0.002  0.000  0.370  0.372
    2  0.000  0.000  0.000  0.000  0.000  0.000  0.001  0.000  0.157  0.157
tot    0.000  0.000  0.000  0.000  0.000  0.000  0.003  0.000  0.527  0.529
 
band    24 # energy   18.47244546 # occ.  0.00000000
 
ion      s     py     pz     px    dxy    dyz    dz2    dxz  x2-y2    tot
    1  0.572  0.000  0.000  0.000  0.000  0.000  0.000  0.000  0.000  0.572
    2  0.004  0.000  0.000  0.000  0.000  0.000  0.000  0.000  0.000  0.004
tot    0.577  0.000  0.000  0.000  0.000  0.000  0.000  0.000  0.000  0.577
 
band    25 # energy   19.14619191 # occ.  0.00000000
 
ion      s     py     pz     px    dxy    dyz    dz2    dxz  x2-y2    tot
    1  0.000  0.000  0.000  0.000  0.000  0.000  0.000  0.000  0.000  0.000
    2  0.000  0.000  0.000  0.000  0.000  0.000  0.000  0.000  0.000  0.000
tot    0.000  0.000  0.000  0.000  0.000  0.000  0.000  0.000  0.000  0.000
 
band    26 # energy   19.14619223 # occ.  0.00000000
 
ion      s     py     pz     px    dxy    dyz    dz2    dxz  x2-y2    tot
    1  0.000  0.000  0.000  0.000  0.000  0.000  0.000  0.000  0.000  0.000
    2  0.000  0.000  0.000  0.000  0.000  0.000  0.000  0.000  0.000  0.000
tot    0.000  0.000  0.000  0.000  0.000  0.000  0.000  0.000  0.000  0.000
 
band    27 # energy   19.14619242 # occ.  0.00000000
 
ion      s     py     pz     px    dxy    dyz    dz2    dxz  x2-y2    tot
    1  0.000  0.000  0.000  0.000  0.000  0.000  0.000  0.000  0.000  0.000
    2  0.000  0.000  0.000  0.000  0.000  0.000  0.000  0.000  0.000  0.000
tot    0.000  0.000  0.000  0.000  0.000  0.000  0.000  0.000  0.000  0.000
 
band    28 # energy   20.74652475 # occ.  0.00000000
 
ion      s     py     pz     px    dxy    dyz    dz2    dxz  x2-y2    tot
    1  0.000  0.001  0.043  0.000  0.000  0.000  0.000  0.000  0.000  0.044
    2  0.000  0.005  0.276  0.002  0.000  0.000  0.000  0.000  0.000  0.283
tot    0.000  0.006  0.319  0.003  0.000  0.000  0.000  0.000  0.000  0.327
 
band    29 # energy   20.74652506 # occ.  0.00000000
 
ion      s     py     pz     px    dxy    dyz    dz2    dxz  x2-y2    tot
    1  0.000  0.033  0.000  0.011  0.000  0.000  0.000  0.000  0.000  0.044
    2  0.000  0.213  0.001  0.068  0.000  0.000  0.000  0.000  0.000  0.283
tot    0.000  0.246  0.002  0.079  0.000  0.000  0.000  0.000  0.000  0.327
 
band    30 # energy   20.74652525 # occ.  0.00000000
 
ion      s     py     pz     px    dxy    dyz    dz2    dxz  x2-y2    tot
    1  0.000  0.010  0.001  0.033  0.000  0.000  0.000  0.000  0.000  0.044
    2  0.000  0.065  0.006  0.212  0.000  0.000  0.000  0.000  0.000  0.283
tot    0.000  0.075  0.007  0.245  0.000  0.000  0.000  0.000  0.000  0.327
 
band    31 # energy   22.01682563 # occ.  0.00000000
 
ion      s     py     pz     px    dxy    dyz    dz2    dxz  x2-y2    tot
    1  0.000  0.000  0.000  0.000  0.000  0.000  0.014  0.000  0.000  0.014
    2  0.000  0.000  0.000  0.000  0.000  0.000  0.359  0.000  0.004  0.363
tot    0.000  0.000  0.000  0.000  0.000  0.000  0.372  0.000  0.004  0.377
 
band    32 # energy   22.01682666 # occ.  0.00000000
 
ion      s     py     pz     px    dxy    dyz    dz2    dxz  x2-y2    tot
    1  0.000  0.000  0.000  0.000  0.000  0.000  0.000  0.000  0.014  0.014
    2  0.000  0.000  0.000  0.000  0.000  0.000  0.004  0.000  0.359  0.363
tot    0.000  0.000  0.000  0.000  0.000  0.000  0.004  0.000  0.372  0.377
 
band    33 # energy   24.82031445 # occ.  0.00000000
 
ion      s     py     pz     px    dxy    dyz    dz2    dxz  x2-y2    tot
    1  0.000  0.000  0.000  0.000  0.090  0.022  0.000  0.017  0.000  0.130
    2  0.000  0.000  0.000  0.000  0.372  0.091  0.000  0.071  0.000  0.534
tot    0.000  0.000  0.000  0.000  0.462  0.114  0.000  0.088  0.000  0.664
 
band    34 # energy   24.82031696 # occ.  0.00000000
 
ion      s     py     pz     px    dxy    dyz    dz2    dxz  x2-y2    tot
    1  0.000  0.000  0.000  0.000  0.002  0.036  0.000  0.092  0.000  0.130
    2  0.000  0.000  0.000  0.000  0.006  0.147  0.000  0.380  0.000  0.534
tot    0.000  0.000  0.000  0.000  0.008  0.183  0.000  0.473  0.000  0.664
 
band    35 # energy   24.82031748 # occ.  0.00000000
 
ion      s     py     pz     px    dxy    dyz    dz2    dxz  x2-y2    tot
    1  0.000  0.000  0.000  0.000  0.038  0.072  0.000  0.020  0.000  0.130
    2  0.000  0.000  0.000  0.000  0.156  0.295  0.000  0.083  0.000  0.534
tot    0.000  0.000  0.000  0.000  0.194  0.367  0.000  0.103  0.000  0.664
 
band    36 # energy   26.16980343 # occ.  0.00000000
 
ion      s     py     pz     px    dxy    dyz    dz2    dxz  x2-y2    tot
    1  0.000  0.007  0.011  0.007  0.000  0.000  0.000  0.000  0.000  0.026
    2  0.000  0.005  0.008  0.005  0.000  0.000  0.000  0.000  0.000  0.019
tot    0.000  0.013  0.020  0.012  0.000  0.000  0.000  0.000  0.000  0.045
 
band    37 # energy   26.16980395 # occ.  0.00000000
 
ion      s     py     pz     px    dxy    dyz    dz2    dxz  x2-y2    tot
    1  0.000  0.016  0.001  0.009  0.000  0.000  0.000  0.000  0.000  0.026
    2  0.000  0.012  0.001  0.006  0.000  0.000  0.000  0.000  0.000  0.019
tot    0.000  0.028  0.001  0.015  0.000  0.000  0.000  0.000  0.000  0.045
 
band    38 # energy   26.16980450 # occ.  0.00000000
 
ion      s     py     pz     px    dxy    dyz    dz2    dxz  x2-y2    tot
    1  0.000  0.002  0.014  0.010  0.000  0.000  0.000  0.000  0.000  0.026
    2  0.000  0.002  0.010  0.007  0.000  0.000  0.000  0.000  0.000  0.019
tot    0.000  0.004  0.024  0.017  0.000  0.000  0.000  0.000  0.000  0.045
 
band    39 # energy   26.84439204 # occ.  0.00000000
 
ion      s     py     pz     px    dxy    dyz    dz2    dxz  x2-y2    tot
    1  0.000  0.000  0.000  0.000  0.000  0.000  0.000  0.000  0.000  0.000
    2  0.000  0.000  0.000  0.000  0.000  0.000  0.000  0.000  0.000  0.000
tot    0.000  0.000  0.000  0.000  0.000  0.000  0.000  0.000  0.000  0.000
 
band    40 # energy   26.84439229 # occ.  0.00000000
 
ion      s     py     pz     px    dxy    dyz    dz2    dxz  x2-y2    tot
    1  0.000  0.000  0.000  0.000  0.000  0.000  0.000  0.000  0.000  0.000
    2  0.000  0.000  0.000  0.000  0.000  0.000  0.000  0.000  0.000  0.000
tot    0.000  0.000  0.000  0.000  0.000  0.000  0.000  0.000  0.000  0.000
 
band    41 # energy   26.84439245 # occ.  0.00000000
 
ion      s     py     pz     px    dxy    dyz    dz2    dxz  x2-y2    tot
    1  0.000  0.000  0.000  0.000  0.000  0.000  0.000  0.000  0.000  0.000
    2  0.000  0.000  0.000  0.000  0.000  0.000  0.000  0.000  0.000  0.000
tot    0.000  0.000  0.000  0.000  0.000  0.000  0.000  0.000  0.000  0.000
 
band    42 # energy   27.31381229 # occ.  0.00000000
 
ion      s     py     pz     px    dxy    dyz    dz2    dxz  x2-y2    tot
    1  0.513  0.000  0.000  0.000  0.000  0.000  0.000  0.000  0.000  0.513
    2  0.186  0.000  0.000  0.000  0.000  0.000  0.000  0.000  0.000  0.186
tot    0.699  0.000  0.000  0.000  0.000  0.000  0.000  0.000  0.000  0.699
 
band    43 # energy   27.50475333 # occ.  0.00000000
 
ion      s     py     pz     px    dxy    dyz    dz2    dxz  x2-y2    tot
    1  0.000  0.000  0.000  0.000  0.000  0.000  0.000  0.000  0.000  0.000
    2  0.000  0.000  0.000  0.000  0.000  0.000  0.000  0.000  0.000  0.000
tot    0.000  0.000  0.000  0.000  0.000  0.000  0.000  0.000  0.000  0.000
 
band    44 # energy   29.13916448 # occ.  0.00000000
 
ion      s     py     pz     px    dxy    dyz    dz2    dxz  x2-y2    tot
    1  0.000  0.000  0.000  0.000  0.000  0.000  0.000  0.000  0.000  0.000
    2  0.000  0.000  0.000  0.000  0.000  0.000  0.000  0.000  0.000  0.000
tot    0.000  0.000  0.000  0.000  0.000  0.000  0.000  0.000  0.000  0.000
 
band    45 # energy   29.13916460 # occ.  0.00000000
 
ion      s     py     pz     px    dxy    dyz    dz2    dxz  x2-y2    tot
    1  0.000  0.000  0.000  0.000  0.000  0.000  0.000  0.000  0.000  0.000
    2  0.000  0.000  0.000  0.000  0.000  0.000  0.000  0.000  0.000  0.000
tot    0.000  0.000  0.000  0.000  0.000  0.000  0.000  0.000  0.000  0.000
 
band    46 # energy   29.13916501 # occ.  0.00000000
 
ion      s     py     pz     px    dxy    dyz    dz2    dxz  x2-y2    tot
    1  0.000  0.000  0.000  0.000  0.000  0.000  0.000  0.000  0.000  0.000
    2  0.000  0.000  0.000  0.000  0.000  0.000  0.000  0.000  0.000  0.000
tot    0.000  0.000  0.000  0.000  0.000  0.000  0.000  0.000  0.000  0.000
 
band    47 # energy   29.22083285 # occ.  0.00000000
 
ion      s     py     pz     px    dxy    dyz    dz2    dxz  x2-y2    tot
    1  0.000  0.000  0.000  0.000  0.000  0.000  0.000  0.000  0.000  0.000
    2  0.000  0.000  0.000  0.000  0.000  0.000  0.000  0.000  0.000  0.000
tot    0.000  0.000  0.000  0.000  0.000  0.000  0.000  0.000  0.000  0.000
 
band    48 # energy   30.44031433 # occ.  0.00000000
 
ion      s     py     pz     px    dxy    dyz    dz2    dxz  x2-y2    tot
    1  0.000  0.000  0.000  0.000  0.008  0.011  0.000  0.008  0.000  0.027
    2  0.000  0.000  0.000  0.000  0.114  0.159  0.000  0.114  0.000  0.387
tot    0.000  0.000  0.000  0.000  0.122  0.170  0.000  0.122  0.000  0.414
 
band    49 # energy   30.44031485 # occ.  0.00000000
 
ion      s     py     pz     px    dxy    dyz    dz2    dxz  x2-y2    tot
    1  0.000  0.000  0.000  0.000  0.006  0.002  0.000  0.018  0.000  0.027
    2  0.000  0.000  0.000  0.000  0.093  0.031  0.000  0.263  0.000  0.387
tot    0.000  0.000  0.000  0.000  0.100  0.033  0.000  0.281  0.000  0.414
 
band    50 # energy   30.44031542 # occ.  0.00000000
 
ion      s     py     pz     px    dxy    dyz    dz2    dxz  x2-y2    tot
    1  0.000  0.000  0.000  0.000  0.012  0.014  0.000  0.001  0.000  0.027
    2  0.000  0.000  0.000  0.000  0.179  0.197  0.000  0.010  0.000  0.387
tot    0.000  0.000  0.000  0.000  0.192  0.211  0.000  0.011  0.000  0.414
 
band    51 # energy   31.80436385 # occ.  0.00000000
 
ion      s     py     pz     px    dxy    dyz    dz2    dxz  x2-y2    tot
    1  0.000  0.001  0.009  0.000  0.000  0.000  0.000  0.000  0.000  0.009
    2  0.000  0.002  0.022  0.000  0.000  0.000  0.000  0.000  0.000  0.024
tot    0.000  0.003  0.031  0.000  0.000  0.000  0.000  0.000  0.000  0.034
 
band    52 # energy   31.80436590 # occ.  0.00000000
 
ion      s     py     pz     px    dxy    dyz    dz2    dxz  x2-y2    tot
    1  0.000  0.008  0.001  0.001  0.000  0.000  0.000  0.000  0.000  0.009
    2  0.000  0.020  0.002  0.002  0.000  0.000  0.000  0.000  0.000  0.024
tot    0.000  0.028  0.003  0.003  0.000  0.000  0.000  0.000  0.000  0.034
 
band    53 # energy   31.80436677 # occ.  0.00000000
 
ion      s     py     pz     px    dxy    dyz    dz2    dxz  x2-y2    tot
    1  0.000  0.001  0.000  0.009  0.000  0.000  0.000  0.000  0.000  0.009
    2  0.000  0.002  0.000  0.022  0.000  0.000  0.000  0.000  0.000  0.024
tot    0.000  0.002  0.000  0.031  0.000  0.000  0.000  0.000  0.000  0.034
 
band    54 # energy   32.24097973 # occ.  0.00000000
 
ion      s     py     pz     px    dxy    dyz    dz2    dxz  x2-y2    tot
    1  0.000  0.000  0.000  0.000  0.000  0.000  0.000  0.000  0.000  0.000
    2  0.000  0.000  0.000  0.000  0.014  0.000  0.000  0.004  0.000  0.018
tot    0.000  0.000  0.000  0.000  0.015  0.000  0.000  0.004  0.000  0.019
 
band    55 # energy   32.24098145 # occ.  0.00000000
 
ion      s     py     pz     px    dxy    dyz    dz2    dxz  x2-y2    tot
    1  0.000  0.000  0.000  0.000  0.000  0.000  0.000  0.000  0.000  0.000
    2  0.000  0.000  0.000  0.000  0.000  0.015  0.000  0.003  0.000  0.018
tot    0.000  0.000  0.000  0.000  0.000  0.015  0.000  0.003  0.000  0.019
 
band    56 # energy   32.24098168 # occ.  0.00000000
 
ion      s     py     pz     px    dxy    dyz    dz2    dxz  x2-y2    tot
    1  0.000  0.000  0.000  0.000  0.000  0.000  0.000  0.000  0.000  0.000
    2  0.000  0.000  0.000  0.000  0.004  0.003  0.000  0.012  0.000  0.018
tot    0.000  0.000  0.000  0.000  0.004  0.003  0.000  0.012  0.000  0.019
 
band    57 # energy   32.97818453 # occ.  0.00000000
 
ion      s     py     pz     px    dxy    dyz    dz2    dxz  x2-y2    tot
    1  0.000  0.000  0.000  0.000  0.000  0.000  0.000  0.000  0.000  0.000
    2  0.000  0.000  0.000  0.000  0.000  0.000  0.000  0.000  0.000  0.000
tot    0.000  0.000  0.000  0.000  0.000  0.000  0.000  0.000  0.000  0.000
 
band    58 # energy   32.97818602 # occ.  0.00000000
 
ion      s     py     pz     px    dxy    dyz    dz2    dxz  x2-y2    tot
    1  0.000  0.000  0.000  0.000  0.000  0.000  0.000  0.000  0.000  0.000
    2  0.000  0.000  0.000  0.000  0.000  0.000  0.000  0.000  0.000  0.000
tot    0.000  0.000  0.000  0.000  0.000  0.000  0.000  0.000  0.000  0.000
 
band    59 # energy   34.29941081 # occ.  0.00000000
 
ion      s     py     pz     px    dxy    dyz    dz2    dxz  x2-y2    tot
    1  0.027  0.000  0.000  0.000  0.000  0.000  0.000  0.000  0.000  0.027
    2  0.056  0.000  0.000  0.000  0.000  0.000  0.000  0.000  0.000  0.056
tot    0.082  0.000  0.000  0.000  0.000  0.000  0.000  0.000  0.000  0.082
 
band    60 # energy   35.27585062 # occ.  0.00000000
 
ion      s     py     pz     px    dxy    dyz    dz2    dxz  x2-y2    tot
    1  0.000  0.000  0.000  0.000  0.000  0.000  0.204  0.000  0.002  0.206
    2  0.000  0.000  0.000  0.000  0.000  0.000  1.034  0.000  0.011  1.044
tot    0.000  0.000  0.000  0.000  0.000  0.000  1.238  0.000  0.013  1.251
 
band    61 # energy   35.27585072 # occ.  0.00000000
 
ion      s     py     pz     px    dxy    dyz    dz2    dxz  x2-y2    tot
    1  0.000  0.000  0.000  0.000  0.000  0.000  0.002  0.000  0.204  0.206
    2  0.000  0.000  0.000  0.000  0.000  0.000  0.011  0.000  1.034  1.044
tot    0.000  0.000  0.000  0.000  0.000  0.000  0.013  0.000  1.238  1.251
 
band    62 # energy   37.71986998 # occ.  0.00000000
 
ion      s     py     pz     px    dxy    dyz    dz2    dxz  x2-y2    tot
    1  0.000  0.084  0.014  0.049  0.000  0.000  0.000  0.000  0.000  0.147
    2  0.000  0.041  0.007  0.024  0.000  0.000  0.000  0.000  0.000  0.071
tot    0.000  0.125  0.021  0.073  0.000  0.000  0.000  0.000  0.000  0.219
 
band    63 # energy   37.71987023 # occ.  0.00000000
 
ion      s     py     pz     px    dxy    dyz    dz2    dxz  x2-y2    tot
    1  0.000  0.054  0.066  0.028  0.000  0.000  0.000  0.000  0.000  0.147
    2  0.000  0.026  0.032  0.013  0.000  0.000  0.000  0.000  0.000  0.071
tot    0.000  0.080  0.097  0.041  0.000  0.000  0.000  0.000  0.000  0.219
 
band    64 # energy   37.71987038 # occ.  0.00000000
 
ion      s     py     pz     px    dxy    dyz    dz2    dxz  x2-y2    tot
    1  0.000  0.009  0.068  0.070  0.000  0.000  0.000  0.000  0.000  0.147
    2  0.000  0.005  0.033  0.034  0.000  0.000  0.000  0.000  0.000  0.071
tot    0.000  0.014  0.100  0.105  0.000  0.000  0.000  0.000  0.000  0.219
 
band    65 # energy   40.87143911 # occ.  0.00000000
 
ion      s     py     pz     px    dxy    dyz    dz2    dxz  x2-y2    tot
    1  1.105  0.000  0.000  0.000  0.000  0.000  0.000  0.000  0.000  1.105
    2  0.081  0.000  0.000  0.000  0.000  0.000  0.000  0.000  0.000  0.081
tot    1.185  0.000  0.000  0.000  0.000  0.000  0.000  0.000  0.000  1.185
 
band    66 # energy   44.25460390 # occ.  0.00000000
 
ion      s     py     pz     px    dxy    dyz    dz2    dxz  x2-y2    tot
    1  0.000  0.000  0.000  0.000  0.133  0.017  0.000  0.006  0.000  0.156
    2  0.000  0.000  0.000  0.000  0.629  0.079  0.000  0.026  0.000  0.733
tot    0.000  0.000  0.000  0.000  0.762  0.096  0.000  0.032  0.000  0.889
 
band    67 # energy   44.25460611 # occ.  0.00000000
 
ion      s     py     pz     px    dxy    dyz    dz2    dxz  x2-y2    tot
    1  0.000  0.000  0.000  0.000  0.001  0.019  0.000  0.136  0.000  0.156
    2  0.000  0.000  0.000  0.000  0.003  0.090  0.000  0.640  0.000  0.733
tot    0.000  0.000  0.000  0.000  0.004  0.109  0.000  0.776  0.000  0.889
 
band    68 # energy   44.25460801 # occ.  0.00000000
 
ion      s     py     pz     px    dxy    dyz    dz2    dxz  x2-y2    tot
    1  0.000  0.000  0.000  0.000  0.022  0.120  0.000  0.014  0.000  0.156
    2  0.000  0.000  0.000  0.000  0.102  0.565  0.000  0.067  0.000  0.733
tot    0.000  0.000  0.000  0.000  0.123  0.684  0.000  0.082  0.000  0.889
 
band    69 # energy   45.09423175 # occ.  0.00000000
 
ion      s     py     pz     px    dxy    dyz    dz2    dxz  x2-y2    tot
    1  0.000  0.000  0.000  0.000  0.000  0.000  0.000  0.000  0.000  0.000
    2  0.000  0.000  0.000  0.000  0.000  0.000  0.000  0.000  0.000  0.000
tot    0.000  0.000  0.000  0.000  0.000  0.000  0.000  0.000  0.000  0.000
 
band    70 # energy   45.09423318 # occ.  0.00000000
 
ion      s     py     pz     px    dxy    dyz    dz2    dxz  x2-y2    tot
    1  0.000  0.000  0.000  0.000  0.000  0.000  0.000  0.000  0.000  0.000
    2  0.000  0.000  0.000  0.000  0.000  0.000  0.000  0.000  0.000  0.000
tot    0.000  0.000  0.000  0.000  0.000  0.000  0.000  0.000  0.000  0.000
 
band    71 # energy   45.09423396 # occ.  0.00000000
 
ion      s     py     pz     px    dxy    dyz    dz2    dxz  x2-y2    tot
    1  0.000  0.000  0.000  0.000  0.000  0.000  0.000  0.000  0.000  0.000
    2  0.000  0.000  0.000  0.000  0.000  0.000  0.000  0.000  0.000  0.000
tot    0.000  0.000  0.000  0.000  0.000  0.000  0.000  0.000  0.000  0.000
 
band    72 # energy   46.22718499 # occ.  0.00000000
 
ion      s     py     pz     px    dxy    dyz    dz2    dxz  x2-y2    tot
    1  0.000  0.000  0.000  0.000  0.242  0.108  0.000  0.040  0.000  0.389
    2  0.000  0.000  0.000  0.000  0.278  0.124  0.000  0.046  0.000  0.448
tot    0.000  0.000  0.000  0.000  0.520  0.232  0.000  0.086  0.000  0.838
 
band    73 # energy   46.22718586 # occ.  0.00000000
 
ion      s     py     pz     px    dxy    dyz    dz2    dxz  x2-y2    tot
    1  0.000  0.000  0.000  0.000  0.006  0.161  0.000  0.223  0.000  0.389
    2  0.000  0.000  0.000  0.000  0.007  0.185  0.000  0.256  0.000  0.448
tot    0.000  0.000  0.000  0.000  0.012  0.346  0.000  0.479  0.000  0.838
 
band    74 # energy   46.22718645 # occ.  0.00000000
 
ion      s     py     pz     px    dxy    dyz    dz2    dxz  x2-y2    tot
    1  0.000  0.000  0.000  0.000  0.142  0.121  0.000  0.127  0.000  0.389
    2  0.000  0.000  0.000  0.000  0.163  0.139  0.000  0.146  0.000  0.448
tot    0.000  0.000  0.000  0.000  0.305  0.260  0.000  0.273  0.000  0.838
 
band    75 # energy   46.47381461 # occ.  0.00000000
 
ion      s     py     pz     px    dxy    dyz    dz2    dxz  x2-y2    tot
    1  0.000  0.000  0.000  0.000  0.000  0.000  0.122  0.000  0.052  0.174
    2  0.000  0.000  0.000  0.000  0.000  0.000  0.195  0.000  0.084  0.279
tot    0.000  0.000  0.000  0.000  0.000  0.000  0.317  0.000  0.136  0.453
 
band    76 # energy   46.47381473 # occ.  0.00000000
 
ion      s     py     pz     px    dxy    dyz    dz2    dxz  x2-y2    tot
    1  0.000  0.000  0.000  0.000  0.000  0.000  0.052  0.000  0.122  0.174
    2  0.000  0.000  0.000  0.000  0.000  0.000  0.084  0.000  0.195  0.279
tot    0.000  0.000  0.000  0.000  0.000  0.000  0.136  0.000  0.317  0.453
 
band    77 # energy   47.34035779 # occ.  0.00000000
 
ion      s     py     pz     px    dxy    dyz    dz2    dxz  x2-y2    tot
    1  0.303  0.000  0.000  0.000  0.000  0.000  0.000  0.000  0.000  0.303
    2  0.173  0.000  0.000  0.000  0.000  0.000  0.000  0.000  0.000  0.173
tot    0.476  0.000  0.000  0.000  0.000  0.000  0.000  0.000  0.000  0.476
 
band    78 # energy   47.61201918 # occ.  0.00000000
 
ion      s     py     pz     px    dxy    dyz    dz2    dxz  x2-y2    tot
    1  0.000  0.143  0.044  0.064  0.000  0.000  0.000  0.000  0.000  0.251
    2  0.000  0.021  0.007  0.010  0.000  0.000  0.000  0.000  0.000  0.037
tot    0.000  0.164  0.051  0.074  0.000  0.000  0.000  0.000  0.000  0.288
 
band    79 # energy   47.61202004 # occ.  0.00000000
 
ion      s     py     pz     px    dxy    dyz    dz2    dxz  x2-y2    tot
    1  0.000  0.015  0.071  0.164  0.000  0.000  0.000  0.000  0.000  0.251
    2  0.000  0.002  0.011  0.024  0.000  0.000  0.000  0.000  0.000  0.037
tot    0.000  0.018  0.082  0.189  0.000  0.000  0.000  0.000  0.000  0.288
 
band    80 # energy   47.61202079 # occ.  0.00000000
 
ion      s     py     pz     px    dxy    dyz    dz2    dxz  x2-y2    tot
    1  0.000  0.093  0.136  0.022  0.000  0.000  0.000  0.000  0.000  0.251
    2  0.000  0.014  0.020  0.003  0.000  0.000  0.000  0.000  0.000  0.037
tot    0.000  0.107  0.156  0.026  0.000  0.000  0.000  0.000  0.000  0.288
 
band    81 # energy   48.02456631 # occ.  0.00000000
 
ion      s     py     pz     px    dxy    dyz    dz2    dxz  x2-y2    tot
    1  0.000  0.000  0.000  0.000  0.000  0.000  0.000  0.000  0.000  0.000
    2  0.000  0.000  0.000  0.000  0.000  0.000  0.000  0.000  0.000  0.000
tot    0.000  0.000  0.000  0.000  0.000  0.000  0.000  0.000  0.000  0.000
 
band    82 # energy   48.31143206 # occ.  0.00000000
 
ion      s     py     pz     px    dxy    dyz    dz2    dxz  x2-y2    tot
    1  0.000  0.000  0.000  0.000  0.000  0.000  0.000  0.000  0.000  0.000
    2  0.000  0.000  0.000  0.000  0.000  0.000  0.000  0.000  0.000  0.000
tot    0.000  0.000  0.000  0.000  0.000  0.000  0.000  0.000  0.000  0.000
 
band    83 # energy   48.31143364 # occ.  0.00000000
 
ion      s     py     pz     px    dxy    dyz    dz2    dxz  x2-y2    tot
    1  0.000  0.000  0.000  0.000  0.000  0.000  0.000  0.000  0.000  0.000
    2  0.000  0.000  0.000  0.000  0.000  0.000  0.000  0.000  0.000  0.000
tot    0.000  0.000  0.000  0.000  0.000  0.000  0.000  0.000  0.000  0.000
 