<?xml version="1.0" encoding="ISO-8859-1"?>
<modeling>
 <generator>
  <i name="program" type="string">vasp </i>
  <i name="version" type="string">5.4.4.18Apr17-6-g9f103f2a35  </i>
  <i name="subversion" type="string">(build Dec 11 2022 16:18:32) complex            parallel </i>
  <i name="platform" type="string">LinuxIFC </i>
  <i name="date" type="string">2022 12 19 </i>
  <i name="time" type="string">18:24:18 </i>
 </generator>
 <incar>
  <i type="string" name="PREC">accurate</i>
  <i type="string" name="ALGO"> Normal</i>
  <i type="int" name="ISPIN">     2</i>
  <i type="int" name="NELM">   200</i>
  <i type="int" name="IBRION">     2</i>
  <i name="EDIFF">      0.00000010</i>
  <i name="EDIFFG">     -0.02000000</i>
  <i type="int" name="NSW">    99</i>
  <i type="int" name="ISIF">     2</i>
  <i type="int" name="ISYM">     0</i>
  <i name="ENCUT">    700.00000000</i>
  <i name="ENAUG">   1360.00000000</i>
  <i type="int" name="NBANDS">     9</i>
  <v name="MAGMOM">      0.00000000      0.00000000</v>
  <i type="logical" name="LREAL"> F  </i>
  <i type="int" name="ISMEAR">     0</i>
  <i name="SIGMA">      0.05000000</i>
  <i type="int" name="LMAXMIX">     4</i>
  <i type="logical" name="LWAVE"> T  </i>
  <i type="logical" name="LCHARG"> F  </i>
  <i type="logical" name="LVTOT"> T  </i>
  <i type="int" name="LORBIT">    11</i>
  <i type="logical" name="LELF"> F  </i>
  <i type="logical" name="LASPH"> T  </i>
  <i type="logical" name="LAECHG"> F  </i>
  <v type="int" name="KPOINT_BSE">    -1     0     0     0</v>
  <i type="int" name="NELM">   200</i>
  <i type="string" name="GGA"> Ps</i>
  <i type="logical" name="LASPH"> T  </i>
  <i type="int" name="LMIXTAU">    -1</i>
 </incar>
 <structure name="primitive_cell" >
  <crystal>
   <varray name="basis" >
    <v>       0.00000000       3.54487900       3.54487900 </v>
    <v>       3.54487900       0.00000000       3.54487900 </v>
    <v>       3.54487900       3.54487900       0.00000000 </v>
   </varray>
   <i name="volume">     89.09108390 </i>
   <varray name="rec_basis" >
    <v>      -0.14104854       0.14104854       0.14104854 </v>
    <v>       0.14104854      -0.14104854       0.14104854 </v>
    <v>       0.14104854       0.14104854      -0.14104854 </v>
   </varray>
  </crystal>
  <varray name="positions" >
   <v>       0.00000000       0.00000000       0.00000000 </v>
   <v>      -0.50000000      -0.50000000      -0.50000000 </v>
  </varray>
 </structure>
 <varray name="primitive_index" >
  <v type="int" >        1 </v>
  <v type="int" >        2 </v>
 </varray>
 <kpoints>
  <generation param="Gamma">
   <v type="int" name="divisions">       1        1        1 </v>
   <v name="usershift">      0.00000000       0.00000000       0.00000000 </v>
   <v name="genvec1">      1.00000000       0.00000000      -0.00000000 </v>
   <v name="genvec2">      0.00000000       1.00000000       0.00000000 </v>
   <v name="genvec3">     -0.00000000      -0.00000000       1.00000000 </v>
   <v name="shift">      0.00000000       0.00000000       0.00000000 </v>
  </generation>
  <varray name="kpointlist" >
   <v>       0.00000000       0.00000000       0.00000000 </v>
  </varray>
  <varray name="weights" >
   <v>       1.00000000 </v>
  </varray>
 </kpoints>
 <parameters>
  <separator name="general" >
   <i type="string" name="SYSTEM">unknown system</i>
   <i type="logical" name="LCOMPAT"> F  </i>
  </separator>
  <separator name="electronic" >
   <i type="string" name="PREC">accura</i>
   <i name="ENMAX">    700.00000000</i>
   <i name="ENAUG">   1360.00000000</i>
   <i name="EDIFF">      0.00000010</i>
   <i type="int" name="IALGO">    38</i>
   <i type="int" name="IWAVPR">    11</i>
   <i type="int" name="NBANDS">   128</i>
   <i name="NELECT">     16.00000000</i>
   <i type="int" name="TURBO">     0</i>
   <i type="int" name="IRESTART">     0</i>
   <i type="int" name="NREBOOT">     0</i>
   <i type="int" name="NMIN">     0</i>
   <i name="EREF">      0.00000000</i>
   <separator name="electronic smearing" >
    <i type="int" name="ISMEAR">     0</i>
    <i name="SIGMA">      0.05000000</i>
    <i name="KSPACING">      0.50000000</i>
    <i type="logical" name="KGAMMA"> T  </i>
   </separator>
   <separator name="electronic projectors" >
    <i type="logical" name="LREAL"> F  </i>
    <v name="ROPT">      0.00000000      0.00000000</v>
    <i type="int" name="LMAXPAW">  -100</i>
    <i type="int" name="LMAXMIX">     4</i>
    <i type="logical" name="NLSPLINE"> F  </i>
   </separator>
   <separator name="electronic startup" >
    <i type="int" name="ISTART">     0</i>
    <i type="int" name="ICHARG">     2</i>
    <i type="int" name="INIWAV">     1</i>
   </separator>
   <separator name="electronic spin" >
    <i type="int" name="ISPIN">     2</i>
    <i type="logical" name="LNONCOLLINEAR"> F  </i>
    <v name="MAGMOM">      0.00000000      0.00000000</v>
    <i name="NUPDOWN">     -1.00000000</i>
    <i type="logical" name="LSORBIT"> F  </i>
    <v name="SAXIS">      0.00000000      0.00000000      1.00000000</v>
    <i type="logical" name="LSPIRAL"> F  </i>
    <v name="QSPIRAL">      0.00000000      0.00000000      0.00000000</v>
    <i type="logical" name="LZEROZ"> F  </i>
   </separator>
   <separator name="electronic exchange-correlation" >
    <i type="logical" name="LASPH"> T  </i>
    <i type="logical" name="LMETAGGA"> F  </i>
   </separator>
   <separator name="electronic convergence" >
    <i type="int" name="NELM">   200</i>
    <i type="int" name="NELMDL">     0</i>
    <i type="int" name="NELMIN">     2</i>
    <i name="ENINI">    700.00000000</i>
    <separator name="electronic convergence detail" >
     <i type="logical" name="LDIAG"> T  </i>
     <i type="logical" name="LSUBROT"> F  </i>
     <i name="WEIMIN">      0.00100000</i>
     <i name="EBREAK">      0.00000000</i>
     <i name="DEPER">      0.30000000</i>
     <i type="int" name="NRMM">     4</i>
     <i name="TIME">      0.40000000</i>
    </separator>
   </separator>
   <separator name="electronic mixer" >
    <i name="AMIX">      0.40000000</i>
    <i name="BMIX">      1.00000000</i>
    <i name="AMIN">      0.10000000</i>
    <i name="AMIX_MAG">      1.60000000</i>
    <i name="BMIX_MAG">      1.00000000</i>
    <separator name="electronic mixer details" >
     <i type="int" name="IMIX">     4</i>
     <i type="logical" name="MIXFIRST"> F  </i>
     <i type="int" name="MAXMIX">   -45</i>
     <i name="WC">    100.00000000</i>
     <i type="int" name="INIMIX">     1</i>
     <i type="int" name="MIXPRE">     1</i>
     <i type="int" name="MREMOVE">     5</i>
    </separator>
   </separator>
   <separator name="electronic dipolcorrection" >
    <i type="logical" name="LDIPOL"> F  </i>
    <i type="logical" name="LMONO"> F  </i>
    <i type="int" name="IDIPOL">     0</i>
    <i name="EPSILON">      1.00000000</i>
    <v name="DIPOL">   -100.00000000   -100.00000000   -100.00000000</v>
    <i name="EFIELD">      0.00000000</i>
   </separator>
  </separator>
  <separator name="grids" >
   <i type="int" name="NGX">    48</i>
   <i type="int" name="NGY">    48</i>
   <i type="int" name="NGZ">    48</i>
   <i type="int" name="NGXF">    96</i>
   <i type="int" name="NGYF">    96</i>
   <i type="int" name="NGZF">    96</i>
   <i type="logical" name="ADDGRID"> F  </i>
  </separator>
  <separator name="ionic" >
   <i type="int" name="NSW">    99</i>
   <i type="int" name="IBRION">     2</i>
   <i type="int" name="MDALGO">     0</i>
   <i type="int" name="ISIF">     2</i>
   <i name="PSTRESS">      0.00000000</i>
   <i name="EDIFFG">     -0.02000000</i>
   <i type="int" name="NFREE">     1</i>
   <i name="POTIM">      0.50000000</i>
   <i name="SMASS">     -3.00000000</i>
   <i name="SCALEE">      1.00000000</i>
  </separator>
  <separator name="ionic md" >
   <i name="TEBEG">      0.00010000</i>
   <i name="TEEND">      0.00010000</i>
   <i type="int" name="NBLOCK">     1</i>
   <i type="int" name="KBLOCK">    99</i>
   <i type="int" name="NPACO">   256</i>
   <i name="APACO">     16.00000000</i>
  </separator>
  <separator name="symmetry" >
   <i type="int" name="ISYM">     0</i>
   <i name="SYMPREC">      0.00001000</i>
  </separator>
  <separator name="dos" >
   <i type="int" name="LORBIT">    11</i>
   <v name="RWIGS">     -1.00000000     -1.00000000</v>
   <i type="int" name="NEDOS">   301</i>
   <i name="EMIN">     10.00000000</i>
   <i name="EMAX">    -10.00000000</i>
   <i name="EFERMI">      0.00000000</i>
  </separator>
  <separator name="writing" >
   <i type="int" name="NWRITE">     2</i>
   <i type="logical" name="LWAVE"> T  </i>
   <i type="logical" name="LDOWNSAMPLE"> F  </i>
   <i type="logical" name="LCHARG"> F  </i>
   <i type="logical" name="LPARD"> F  </i>
   <i type="logical" name="LVTOT"> T  </i>
   <i type="logical" name="LVHAR"> F  </i>
   <i type="logical" name="LELF"> F  </i>
   <i type="logical" name="LOPTICS"> F  </i>
   <v name="STM">      0.00000000      0.00000000      0.00000000      0.00000000      0.00000000      0.00000000      0.00000000</v>
  </separator>
  <separator name="performance" >
   <i type="int" name="NPAR">   128</i>
   <i type="int" name="NSIM">     4</i>
   <i type="int" name="NBLK">    -1</i>
   <i type="logical" name="LPLANE"> T  </i>
   <i type="logical" name="LSCALAPACK"> T  </i>
   <i type="logical" name="LSCAAWARE"> T  </i>
   <i type="logical" name="LSCALU"> F  </i>
   <i type="logical" name="LASYNC"> F  </i>
   <i type="logical" name="LORBITALREAL"> F  </i>
  </separator>
  <separator name="miscellaneous" >
   <i type="int" name="IDIOT">     3</i>
   <i type="int" name="ISPECIAL">     0</i>
   <i type="logical" name="LMUSIC"> F  </i>
   <v name="POMASS">    137.32700000    127.60000000</v>
   <v name="DARWINR">      0.00000000      0.00000000</v>
   <v name="DARWINV">      1.00000000      1.00000000</v>
   <i type="logical" name="LCORR"> T  </i>
  </separator>
  <i type="logical" name="GGA_COMPAT"> T  </i>
  <i type="logical" name="LBERRY"> F  </i>
  <i type="int" name="ICORELEVEL">     0</i>
  <i type="logical" name="LDAU"> F  </i>
  <i type="int" name="I_CONSTRAINED_M">     0</i>
  <separator name="electronic exchange-correlation" >
   <i type="string" name="GGA">PS</i>
   <i type="int" name="VOSKOWN">     0</i>
   <i type="logical" name="LHFCALC"> F  </i>
   <i type="string" name="PRECFOCK"></i>
   <i type="logical" name="LSYMGRAD"> F  </i>
   <i type="logical" name="LHFONE"> F  </i>
   <i type="logical" name="LRHFCALC"> F  </i>
   <i type="logical" name="LTHOMAS"> F  </i>
   <i type="logical" name="LMODELHF"> F  </i>
   <i name="ENCUT4O">     -1.00000000</i>
   <i type="int" name="EXXOEP">     0</i>
   <i type="int" name="FOURORBIT">     0</i>
   <i name="AEXX">      0.00000000</i>
   <i name="HFALPHA">      0.00000000</i>
   <i name="MCALPHA">      0.00000000</i>
   <i name="ALDAX">      1.00000000</i>
   <i name="AGGAX">      1.00000000</i>
   <i name="ALDAC">      1.00000000</i>
   <i name="AGGAC">      1.00000000</i>
   <i type="int" name="NKREDX">     1</i>
   <i type="int" name="NKREDY">     1</i>
   <i type="int" name="NKREDZ">     1</i>
   <i type="logical" name="SHIFTRED"> F  </i>
   <i type="logical" name="ODDONLY"> F  </i>
   <i type="logical" name="EVENONLY"> F  </i>
   <i type="int" name="LMAXFOCK">     0</i>
   <i type="int" name="NMAXFOCKAE">     0</i>
   <i type="logical" name="LFOCKAEDFT"> F  </i>
   <i name="HFSCREEN">      0.00000000</i>
   <i name="HFSCREENC">      0.00000000</i>
   <i type="int" name="NBANDSGWLOW">     0</i>
  </separator>
  <separator name="vdW DFT" >
   <i type="logical" name="LUSE_VDW"> F  </i>
   <i name="Zab_VDW">     -0.84910000</i>
   <i name="PARAM1">      0.12340000</i>
   <i name="PARAM2">      1.00000000</i>
   <i name="PARAM3">      0.00000000</i>
  </separator>
  <separator name="model GW" >
   <i type="int" name="MODEL_GW">     0</i>
   <i name="MODEL_EPS0">     26.72732517</i>
   <i name="MODEL_ALPHA">      1.00000000</i>
  </separator>
  <separator name="linear response parameters" >
   <i type="logical" name="LEPSILON"> F  </i>
   <i type="logical" name="LRPA"> F  </i>
   <i type="logical" name="LNABLA"> F  </i>
   <i type="logical" name="LVEL"> F  </i>
   <i type="int" name="KINTER">     0</i>
   <i name="CSHIFT">      0.10000000</i>
   <i name="OMEGAMAX">     -1.00000000</i>
   <i name="DEG_THRESHOLD">      0.00200000</i>
   <i name="RTIME">     -0.10000000</i>
   <i name="WPLASMAI">      0.00000000</i>
   <v name="DFIELD">      0.00000000      0.00000000      0.00000000</v>
   <v name="WPLASMA">      0.00000000      0.00000000      0.00000000      0.00000000      0.00000000      0.00000000      0.00000000      0.00000000      0.00000000</v>
  </separator>
  <separator name="orbital magnetization" >
   <i type="logical" name="NUCIND"> F  </i>
   <v name="MAGPOS">      0.00000000      0.00000000      0.00000000</v>
   <i type="logical" name="LNICSALL"> T  </i>
   <i type="logical" name="ORBITALMAG"> F  </i>
   <i type="logical" name="LMAGBLOCH"> F  </i>
   <i type="logical" name="LCHIMAG"> F  </i>
   <i type="logical" name="LGAUGE"> T  </i>
   <i type="int" name="MAGATOM">     0</i>
   <v name="MAGDIPOL">      0.00000000      0.00000000      0.00000000</v>
   <v name="AVECCONST">      0.00000000      0.00000000      0.00000000</v>
  </separator>
  <separator name="response functions" >
   <i type="logical" name="LADDER"> F  </i>
   <i type="logical" name="LRPAFORCE"> F  </i>
   <i type="logical" name="LFXC"> F  </i>
   <i type="logical" name="LHARTREE"> T  </i>
   <i type="int" name="IBSE">     0</i>
   <v type="int" name="KPOINT">    -1     0     0     0</v>
   <i type="logical" name="LTCTE"> F  </i>
   <i type="logical" name="LTETE"> F  </i>
   <i type="logical" name="LTRIPLET"> F  </i>
   <i type="logical" name="LFXCEPS"> F  </i>
   <i type="logical" name="LFXHEG"> F  </i>
   <i type="int" name="NATURALO">     2</i>
   <i type="logical" name="L2ORDER"> F  </i>
   <i type="logical" name="LMP2LT"> F  </i>
   <i type="logical" name="LUSEW"> F  </i>
   <i name="ENCUTGW">     -2.00000000</i>
   <i name="ENCUTGWSOFT">     -2.00000000</i>
   <i name="ENCUTLF">     -1.00000000</i>
   <i type="int" name="LMAXMP2">    -1</i>
   <i name="SCISSOR">      0.00000000</i>
   <i type="int" name="NOMEGA">     0</i>
   <i type="int" name="NOMEGAR">     0</i>
   <i type="int" name="NBANDSGW">    -1</i>
   <i type="int" name="NBANDSO">    -1</i>
   <i type="int" name="NBANDSV">    -1</i>
   <i type="int" name="NELM">   200</i>
   <i type="int" name="NELMHF">     1</i>
   <i type="int" name="DIM">     3</i>
   <i type="int" name="ANTIRES">     0</i>
   <i name="OMEGAMAX">    -30.00000000</i>
   <i name="OMEGAMIN">    -30.00000000</i>
   <i name="OMEGATL">   -200.00000000</i>
   <i type="int" name="OMEGAGRID">   140</i>
   <i name="CSHIFT">     -0.10000000</i>
   <i type="logical" name="SELFENERGY"> F  </i>
   <i type="logical" name="LSPECTRAL"> F  </i>
   <i type="logical" name="LSPECTRALGW"> F  </i>
   <i type="logical" name="LSINGLES"> F  </i>
   <i type="logical" name="LFERMIGW"> F  </i>
   <i type="logical" name="ODDONLYGW"> F  </i>
   <i type="logical" name="EVENONLYGW"> F  </i>
   <i type="int" name="NKREDLFX">     1</i>
   <i type="int" name="NKREDLFY">     1</i>
   <i type="int" name="NKREDLFZ">     1</i>
   <i type="int" name="MAXMEM">  2800</i>
   <i type="int" name="TELESCOPE">     0</i>
   <i type="int" name="TAUPAR">     1</i>
   <i type="int" name="OMEGAPAR">    -1</i>
   <i name="LAMBDA">      1.00000000</i>
  </separator>
  <separator name="External order field" >
   <i name="OFIELD_KAPPA">      0.00000000</i>
   <v name="OFIELD_K">      0.00000000      0.00000000      0.00000000</v>
   <i name="OFIELD_Q6_NEAR">      0.00000000</i>
   <i name="OFIELD_Q6_FAR">      0.00000000</i>
   <i name="OFIELD_A">      0.00000000</i>
  </separator>
 </parameters>
 <atominfo>
  <atoms>       2 </atoms>
  <types>       2 </types>
  <array name="atoms" >
   <dimension dim="1">ion</dimension>
   <field type="string">element</field>
   <field type="int">atomtype</field>
   <set>
    <rc><c>Ba</c><c>   1</c></rc>
    <rc><c>Te</c><c>   2</c></rc>
   </set>
  </array>
  <array name="atomtypes" >
   <dimension dim="1">type</dimension>
   <field type="int">atomspertype</field>
   <field type="string">element</field>
   <field>mass</field>
   <field>valence</field>
   <field type="string">pseudopotential</field>
   <set>
    <rc><c>   1</c><c>Ba</c><c>    137.32700000</c><c>     10.00000000</c><c>  PAW_PBE Ba_sv 06Sep2000               </c></rc>
    <rc><c>   1</c><c>Te</c><c>    127.60000000</c><c>      6.00000000</c><c>  PAW_PBE Te 08Apr2002                  </c></rc>
   </set>
  </array>
 </atominfo>
 <structure name="initialpos" >
  <crystal>
   <varray name="basis" >
    <v>       0.00000000       3.54487900       3.54487900 </v>
    <v>       3.54487900       0.00000000       3.54487900 </v>
    <v>       3.54487900       3.54487900       0.00000000 </v>
   </varray>
   <i name="volume">     89.09108390 </i>
   <varray name="rec_basis" >
    <v>      -0.14104854       0.14104854       0.14104854 </v>
    <v>       0.14104854      -0.14104854       0.14104854 </v>
    <v>       0.14104854       0.14104854      -0.14104854 </v>
   </varray>
  </crystal>
  <varray name="positions" >
   <v>       0.00000000       0.00000000       0.00000000 </v>
   <v>       0.50000000       0.50000000       0.50000000 </v>
  </varray>
 </structure>
 <calculation>
  <scstep>
   <time name="dav">    0.56    0.56</time>
   <time name="total">    1.19    1.21</time>
   <energy>
    <i name="alphaZ">     47.90658202 </i>
    <i name="ewald">   -766.02698219 </i>
    <i name="hartreedc">   -128.63278960 </i>
    <i name="XCdc">     -2.38599114 </i>
    <i name="pawpsdc">    724.01575249 </i>
    <i name="pawaedc">   -683.12612723 </i>
    <i name="eentropy">     -0.00000000 </i>
    <i name="bandstr">    -92.09959737 </i>
    <i name="atom">    924.21922033 </i>
    <i name="e_fr_energy">     23.87006731 </i>
    <i name="e_wo_entrp">     23.87006731 </i>
    <i name="e_0_energy">     23.87006731 </i>
   </energy>
  </scstep>
  <scstep>
   <time name="dav">    1.02    1.02</time>
   <time name="total">    1.02    1.02</time>
   <energy>
    <i name="e_fr_energy">     -3.86618406 </i>
    <i name="e_wo_entrp">     -3.86618406 </i>
    <i name="e_0_energy">     -3.86618406 </i>
   </energy>
  </scstep>
  <scstep>
   <time name="dav">    0.57    0.57</time>
   <time name="total">    0.57    0.57</time>
   <energy>
    <i name="e_fr_energy">     -3.87376733 </i>
    <i name="e_wo_entrp">     -3.87376733 </i>
    <i name="e_0_energy">     -3.87376733 </i>
   </energy>
  </scstep>
  <scstep>
   <time name="dav">    1.69    1.69</time>
   <time name="total">    1.69    1.69</time>
   <energy>
    <i name="e_fr_energy">     -3.87376911 </i>
    <i name="e_wo_entrp">     -3.87376911 </i>
    <i name="e_0_energy">     -3.87376911 </i>
   </energy>
  </scstep>
  <scstep>
   <time name="dav">    0.54    0.54</time>
   <time name="total">    0.59    0.59</time>
   <energy>
    <i name="e_fr_energy">     -3.87376911 </i>
    <i name="e_wo_entrp">     -3.87376911 </i>
    <i name="e_0_energy">     -3.87376911 </i>
   </energy>
  </scstep>
  <scstep>
   <time name="dav">    0.51    0.51</time>
   <time name="total">    1.08    1.08</time>
   <energy>
    <i name="e_fr_energy">     -2.60312186 </i>
    <i name="e_wo_entrp">     -2.60312186 </i>
    <i name="e_0_energy">     -2.60312186 </i>
   </energy>
  </scstep>
  <scstep>
   <time name="dav">    0.88    0.88</time>
   <time name="total">    1.43    1.43</time>
   <energy>
    <i name="e_fr_energy">     -2.35801830 </i>
    <i name="e_wo_entrp">     -2.35801830 </i>
    <i name="e_0_energy">     -2.35801830 </i>
   </energy>
  </scstep>
  <scstep>
   <time name="dav">    0.89    0.89</time>
   <time name="total">    1.44    1.44</time>
   <energy>
    <i name="e_fr_energy">     -2.43720109 </i>
    <i name="e_wo_entrp">     -2.43720109 </i>
    <i name="e_0_energy">     -2.43720109 </i>
   </energy>
  </scstep>
  <scstep>
   <time name="dav">    1.49    1.50</time>
   <time name="total">    2.05    2.06</time>
   <energy>
    <i name="e_fr_energy">     -2.43821949 </i>
    <i name="e_wo_entrp">     -2.43821949 </i>
    <i name="e_0_energy">     -2.43821949 </i>
   </energy>
  </scstep>
  <scstep>
   <time name="dav">    0.51    0.51</time>
   <time name="total">    1.06    1.07</time>
   <energy>
    <i name="e_fr_energy">     -2.44057746 </i>
    <i name="e_wo_entrp">     -2.44057746 </i>
    <i name="e_0_energy">     -2.44057746 </i>
   </energy>
  </scstep>
  <scstep>
   <time name="dav">    0.90    0.90</time>
   <time name="total">    1.45    1.45</time>
   <energy>
    <i name="e_fr_energy">     -2.44058054 </i>
    <i name="e_wo_entrp">     -2.44058054 </i>
    <i name="e_0_energy">     -2.44058054 </i>
   </energy>
  </scstep>
  <scstep>
   <time name="dav">    0.50    0.50</time>
   <time name="total">    1.06    1.06</time>
   <energy>
    <i name="e_fr_energy">     -2.44058302 </i>
    <i name="e_wo_entrp">     -2.44058302 </i>
    <i name="e_0_energy">     -2.44058302 </i>
   </energy>
  </scstep>
  <scstep>
   <time name="dav">    0.51    0.51</time>
   <time name="total">    1.07    1.07</time>
   <energy>
    <i name="e_fr_energy">     -2.44058319 </i>
    <i name="e_wo_entrp">     -2.44058319 </i>
    <i name="e_0_energy">     -2.44058319 </i>
   </energy>
  </scstep>
  <scstep>
   <time name="dav">    1.52    1.52</time>
   <time name="total">    2.03    2.03</time>
   <energy>
    <i name="alphaZ">     47.90658202 </i>
    <i name="ewald">   -766.02698219 </i>
    <i name="hartreedc">   -135.21501697 </i>
    <i name="XCdc">     -1.00817763 </i>
    <i name="pawpsdc">    973.80215144 </i>
    <i name="pawaedc">   -934.88433342 </i>
    <i name="eentropy">     -0.00000000 </i>
    <i name="bandstr">   -111.23402682 </i>
    <i name="atom">    924.21922033 </i>
    <i name="e_fr_energy">     -2.44058324 </i>
    <i name="e_wo_entrp">     -2.44058324 </i>
    <i name="e_0_energy">     -2.44058324 </i>
   </energy>
  </scstep>
  <structure>
   <crystal>
    <varray name="basis" >
     <v>       0.00000000       3.54487900       3.54487900 </v>
     <v>       3.54487900       0.00000000       3.54487900 </v>
     <v>       3.54487900       3.54487900       0.00000000 </v>
    </varray>
    <i name="volume">     89.09108390 </i>
    <varray name="rec_basis" >
     <v>      -0.14104854       0.14104854       0.14104854 </v>
     <v>       0.14104854      -0.14104854       0.14104854 </v>
     <v>       0.14104854       0.14104854      -0.14104854 </v>
    </varray>
   </crystal>
   <varray name="positions" >
    <v>       0.00000000       0.00000000       0.00000000 </v>
    <v>       0.50000000       0.50000000       0.50000000 </v>
   </varray>
  </structure>
  <varray name="forces" >
   <v>      -0.00000000       0.00000001      -0.00000001 </v>
   <v>       0.00000000      -0.00000001       0.00000001 </v>
  </varray>
  <varray name="stress" >
   <v>     132.57703347      -0.00000499      -0.00000526 </v>
   <v>      -0.00000494     132.57703366      -0.00000457 </v>
   <v>      -0.00000518      -0.00000461     132.57703337 </v>
  </varray>
  <energy>
   <i name="e_fr_energy">     -2.44058324 </i>
   <i name="e_wo_entrp">     -2.44058324 </i>
   <i name="e_0_energy">     -0.00000000 </i>
  </energy>
  <time name="totalsc">   19.00   19.06</time>
  <eigenvalues>
   <array>
    <dimension dim="1">band</dimension>
    <dimension dim="2">kpoint</dimension>
    <dimension dim="3">spin</dimension>
    <field>eigene</field>
    <field>occ</field>
    <set>
     <set comment="spin 1">
      <set comment="kpoint 1">
       <r>  -26.1340    1.0000 </r>
       <r>  -11.1575    1.0000 </r>
       <r>  -11.1575    1.0000 </r>
       <r>  -11.1575    1.0000 </r>
       <r>   -5.8412    1.0000 </r>
       <r>    3.2769    1.0000 </r>
       <r>    3.2769    1.0000 </r>
       <r>    3.2769    1.0000 </r>
       <r>    4.8520    0.0000 </r>
       <r>    4.8520    0.0000 </r>
       <r>    4.8520    0.0000 </r>
       <r>    5.3495    0.0000 </r>
       <r>    5.3495    0.0000 </r>
       <r>    5.4235    0.0000 </r>
       <r>    9.4807    0.0000 </r>
       <r>   13.9143    0.0000 </r>
       <r>   13.9143    0.0000 </r>
       <r>   13.9143    0.0000 </r>
       <r>   14.4976    0.0000 </r>
       <r>   14.4976    0.0000 </r>
       <r>   14.4976    0.0000 </r>
       <r>   17.1638    0.0000 </r>
       <r>   17.1638    0.0000 </r>
       <r>   18.4724    0.0000 </r>
       <r>   19.1462    0.0000 </r>
       <r>   19.1462    0.0000 </r>
       <r>   19.1462    0.0000 </r>
       <r>   20.7465    0.0000 </r>
       <r>   20.7465    0.0000 </r>
       <r>   20.7465    0.0000 </r>
       <r>   22.0168    0.0000 </r>
       <r>   22.0168    0.0000 </r>
       <r>   24.8203    0.0000 </r>
       <r>   24.8203    0.0000 </r>
       <r>   24.8203    0.0000 </r>
       <r>   26.1698    0.0000 </r>
       <r>   26.1698    0.0000 </r>
       <r>   26.1698    0.0000 </r>
       <r>   26.8444    0.0000 </r>
       <r>   26.8444    0.0000 </r>
       <r>   26.8444    0.0000 </r>
       <r>   27.3138    0.0000 </r>
       <r>   27.5048    0.0000 </r>
       <r>   29.1392    0.0000 </r>
       <r>   29.1392    0.0000 </r>
       <r>   29.1392    0.0000 </r>
       <r>   29.2208    0.0000 </r>
       <r>   30.4403    0.0000 </r>
       <r>   30.4403    0.0000 </r>
       <r>   30.4403    0.0000 </r>
       <r>   31.8044    0.0000 </r>
       <r>   31.8044    0.0000 </r>
       <r>   31.8044    0.0000 </r>
       <r>   32.2410    0.0000 </r>
       <r>   32.2410    0.0000 </r>
       <r>   32.2410    0.0000 </r>
       <r>   32.9782    0.0000 </r>
       <r>   32.9782    0.0000 </r>
       <r>   34.2994    0.0000 </r>
       <r>   35.2759    0.0000 </r>
       <r>   35.2759    0.0000 </r>
       <r>   37.7199    0.0000 </r>
       <r>   37.7199    0.0000 </r>
       <r>   37.7199    0.0000 </r>
       <r>   40.8714    0.0000 </r>
       <r>   44.2546    0.0000 </r>
       <r>   44.2546    0.0000 </r>
       <r>   44.2546    0.0000 </r>
       <r>   45.0942    0.0000 </r>
       <r>   45.0942    0.0000 </r>
       <r>   45.0942    0.0000 </r>
       <r>   46.2272    0.0000 </r>
       <r>   46.2272    0.0000 </r>
       <r>   46.2272    0.0000 </r>
       <r>   46.4738    0.0000 </r>
       <r>   46.4738    0.0000 </r>
       <r>   47.3404    0.0000 </r>
       <r>   47.6120    0.0000 </r>
       <r>   47.6120    0.0000 </r>
       <r>   47.6120    0.0000 </r>
       <r>   48.0246    0.0000 </r>
       <r>   48.3114    0.0000 </r>
       <r>   48.3114    0.0000 </r>
       <r>   48.3114    0.0000 </r>
       <r>   50.6718    0.0000 </r>
       <r>   50.6718    0.0000 </r>
       <r>   50.9831    0.0000 </r>
       <r>   50.9831    0.0000 </r>
       <r>   50.9831    0.0000 </r>
       <r>   52.6461    0.0000 </r>
       <r>   52.6461    0.0000 </r>
       <r>   52.6461    0.0000 </r>
       <r>   52.7607    0.0000 </r>
       <r>   52.7607    0.0000 </r>
       <r>   52.7607    0.0000 </r>
       <r>   53.8437    0.0000 </r>
       <r>   53.8437    0.0000 </r>
       <r>   53.8437    0.0000 </r>
       <r>   55.1611    0.0000 </r>
       <r>   55.1611    0.0000 </r>
       <r>   55.1611    0.0000 </r>
       <r>   55.2665    0.0000 </r>
       <r>   55.2665    0.0000 </r>
       <r>   55.4858    0.0000 </r>
       <r>   55.4858    0.0000 </r>
       <r>   55.4858    0.0000 </r>
       <r>   55.5792    0.0000 </r>
       <r>   55.5792    0.0000 </r>
       <r>   56.3659    0.0000 </r>
       <r>   56.3660    0.0000 </r>
       <r>   56.3660    0.0000 </r>
       <r>   56.8494    0.0000 </r>
       <r>   57.1417    0.0000 </r>
       <r>   58.2069    0.0000 </r>
       <r>   58.7002    0.0000 </r>
       <r>   58.7002    0.0000 </r>
       <r>   61.3879    0.0000 </r>
       <r>   61.3879    0.0000 </r>
       <r>   61.3879    0.0000 </r>
       <r>   62.3791    0.0000 </r>
       <r>   62.3791    0.0000 </r>
       <r>   62.3791    0.0000 </r>
       <r>   62.5996    0.0000 </r>
       <r>   64.5885    0.0000 </r>
       <r>   66.6344    0.0000 </r>
       <r>   66.6344    0.0000 </r>
       <r>   66.8117    0.0000 </r>
       <r>   66.8117    0.0000 </r>
      </set>
     </set>
     <set comment="spin 2">
      <set comment="kpoint 1">
       <r>  -26.1340    1.0000 </r>
       <r>  -11.1575    1.0000 </r>
       <r>  -11.1575    1.0000 </r>
       <r>  -11.1575    1.0000 </r>
       <r>   -5.8412    1.0000 </r>
       <r>    3.2769    1.0000 </r>
       <r>    3.2769    1.0000 </r>
       <r>    3.2769    1.0000 </r>
       <r>    4.8520    0.0000 </r>
       <r>    4.8520    0.0000 </r>
       <r>    4.8520    0.0000 </r>
       <r>    5.3495    0.0000 </r>
       <r>    5.3495    0.0000 </r>
       <r>    5.4235    0.0000 </r>
       <r>    9.4808    0.0000 </r>
       <r>   13.9143    0.0000 </r>
       <r>   13.9143    0.0000 </r>
       <r>   13.9143    0.0000 </r>
       <r>   14.4976    0.0000 </r>
       <r>   14.4976    0.0000 </r>
       <r>   14.4976    0.0000 </r>
       <r>   17.1638    0.0000 </r>
       <r>   17.1638    0.0000 </r>
       <r>   18.4725    0.0000 </r>
       <r>   19.1462    0.0000 </r>
       <r>   19.1462    0.0000 </r>
       <r>   19.1462    0.0000 </r>
       <r>   20.7465    0.0000 </r>
       <r>   20.7465    0.0000 </r>
       <r>   20.7465    0.0000 </r>
       <r>   22.0168    0.0000 </r>
       <r>   22.0168    0.0000 </r>
       <r>   24.8203    0.0000 </r>
       <r>   24.8203    0.0000 </r>
       <r>   24.8203    0.0000 </r>
       <r>   26.1698    0.0000 </r>
       <r>   26.1698    0.0000 </r>
       <r>   26.1698    0.0000 </r>
       <r>   26.8444    0.0000 </r>
       <r>   26.8444    0.0000 </r>
       <r>   26.8444    0.0000 </r>
       <r>   27.3138    0.0000 </r>
       <r>   27.5048    0.0000 </r>
       <r>   29.1392    0.0000 </r>
       <r>   29.1392    0.0000 </r>
       <r>   29.1392    0.0000 </r>
       <r>   29.2208    0.0000 </r>
       <r>   30.4403    0.0000 </r>
       <r>   30.4403    0.0000 </r>
       <r>   30.4403    0.0000 </r>
       <r>   31.8044    0.0000 </r>
       <r>   31.8044    0.0000 </r>
       <r>   31.8044    0.0000 </r>
       <r>   32.2410    0.0000 </r>
       <r>   32.2410    0.0000 </r>
       <r>   32.2410    0.0000 </r>
       <r>   32.9782    0.0000 </r>
       <r>   32.9782    0.0000 </r>
       <r>   34.2994    0.0000 </r>
       <r>   35.2759    0.0000 </r>
       <r>   35.2759    0.0000 </r>
       <r>   37.7199    0.0000 </r>
       <r>   37.7199    0.0000 </r>
       <r>   37.7199    0.0000 </r>
       <r>   40.8714    0.0000 </r>
       <r>   44.2546    0.0000 </r>
       <r>   44.2546    0.0000 </r>
       <r>   44.2546    0.0000 </r>
       <r>   45.0942    0.0000 </r>
       <r>   45.0942    0.0000 </r>
       <r>   45.0942    0.0000 </r>
       <r>   46.2272    0.0000 </r>
       <r>   46.2272    0.0000 </r>
       <r>   46.2272    0.0000 </r>
       <r>   46.4738    0.0000 </r>
       <r>   46.4738    0.0000 </r>
       <r>   47.3404    0.0000 </r>
       <r>   47.6120    0.0000 </r>
       <r>   47.6120    0.0000 </r>
       <r>   47.6120    0.0000 </r>
       <r>   48.0246    0.0000 </r>
       <r>   48.3114    0.0000 </r>
       <r>   48.3114    0.0000 </r>
       <r>   48.3114    0.0000 </r>
       <r>   50.6718    0.0000 </r>
       <r>   50.6718    0.0000 </r>
       <r>   50.9831    0.0000 </r>
       <r>   50.9831    0.0000 </r>
       <r>   50.9831    0.0000 </r>
       <r>   52.6461    0.0000 </r>
       <r>   52.6461    0.0000 </r>
       <r>   52.6461    0.0000 </r>
       <r>   52.7607    0.0000 </r>
       <r>   52.7607    0.0000 </r>
       <r>   52.7607    0.0000 </r>
       <r>   53.8437    0.0000 </r>
       <r>   53.8437    0.0000 </r>
       <r>   53.8437    0.0000 </r>
       <r>   55.1611    0.0000 </r>
       <r>   55.1611    0.0000 </r>
       <r>   55.1611    0.0000 </r>
       <r>   55.2665    0.0000 </r>
       <r>   55.2665    0.0000 </r>
       <r>   55.4858    0.0000 </r>
       <r>   55.4858    0.0000 </r>
       <r>   55.4858    0.0000 </r>
       <r>   55.5792    0.0000 </r>
       <r>   55.5792    0.0000 </r>
       <r>   56.3659    0.0000 </r>
       <r>   56.3659    0.0000 </r>
       <r>   56.3660    0.0000 </r>
       <r>   56.8494    0.0000 </r>
       <r>   57.1417    0.0000 </r>
       <r>   58.2069    0.0000 </r>
       <r>   58.7002    0.0000 </r>
       <r>   58.7002    0.0000 </r>
       <r>   61.3879    0.0000 </r>
       <r>   61.3879    0.0000 </r>
       <r>   61.3879    0.0000 </r>
       <r>   62.3791    0.0000 </r>
       <r>   62.3791    0.0000 </r>
       <r>   62.3791    0.0000 </r>
       <r>   62.5996    0.0000 </r>
       <r>   64.5885    0.0000 </r>
       <r>   66.6344    0.0000 </r>
       <r>   66.6344    0.0000 </r>
       <r>   66.8117    0.0000 </r>
       <r>   66.8117    0.0000 </r>
      </set>
     </set>
    </set>
   </array>
  </eigenvalues>
  <separator name="orbital magnetization" >
   <v name="MAGDIPOLOUT">      0.00000000      0.00000000      0.00000000</v>
  </separator>
  <dos>
   <i name="efermi">      3.72477359 </i>
   <total>
    <array>
     <dimension dim="1">gridpoints</dimension>
     <dimension dim="2">spin</dimension>
     <field>energy</field>
     <field>total</field>
     <field>integrated</field>
     <set>
      <set comment="spin 1">
       <r>   -30.7813     0.0000     0.0000 </r>
       <r>   -30.4405     0.0000     0.0000 </r>
       <r>   -30.0997     0.0000     0.0000 </r>
       <r>   -29.7589     0.0000     0.0000 </r>
       <r>   -29.4181     0.0000     0.0000 </r>
       <r>   -29.0773     0.0000     0.0000 </r>
       <r>   -28.7365     0.0000     0.0000 </r>
       <r>   -28.3957     0.0000     0.0000 </r>
       <r>   -28.0549     0.0000     0.0000 </r>
       <r>   -27.7141     0.0000     0.0000 </r>
       <r>   -27.3733     0.0000     0.0000 </r>
       <r>   -27.0325     0.0000     0.0000 </r>
       <r>   -26.6917     0.0000     0.0000 </r>
       <r>   -26.3509     0.0000     0.0000 </r>
       <r>   -26.0101     2.9336     0.9998 </r>
       <r>   -25.6693     0.0000     1.0000 </r>
       <r>   -25.3285     0.0000     1.0000 </r>
       <r>   -24.9877     0.0000     1.0000 </r>
       <r>   -24.6469     0.0000     1.0000 </r>
       <r>   -24.3061     0.0000     1.0000 </r>
       <r>   -23.9653     0.0000     1.0000 </r>
       <r>   -23.6245     0.0000     1.0000 </r>
       <r>   -23.2837     0.0000     1.0000 </r>
       <r>   -22.9429     0.0000     1.0000 </r>
       <r>   -22.6021     0.0000     1.0000 </r>
       <r>   -22.2613     0.0000     1.0000 </r>
       <r>   -21.9205     0.0000     1.0000 </r>
       <r>   -21.5797     0.0000     1.0000 </r>
       <r>   -21.2389     0.0000     1.0000 </r>
       <r>   -20.8981     0.0000     1.0000 </r>
       <r>   -20.5573     0.0000     1.0000 </r>
       <r>   -20.2165     0.0000     1.0000 </r>
       <r>   -19.8757     0.0000     1.0000 </r>
       <r>   -19.5349     0.0000     1.0000 </r>
       <r>   -19.1941     0.0000     1.0000 </r>
       <r>   -18.8533     0.0000     1.0000 </r>
       <r>   -18.5125     0.0000     1.0000 </r>
       <r>   -18.1717     0.0000     1.0000 </r>
       <r>   -17.8309     0.0000     1.0000 </r>
       <r>   -17.4901     0.0000     1.0000 </r>
       <r>   -17.1493     0.0000     1.0000 </r>
       <r>   -16.8085     0.0000     1.0000 </r>
       <r>   -16.4677     0.0000     1.0000 </r>
       <r>   -16.1269     0.0000     1.0000 </r>
       <r>   -15.7861     0.0000     1.0000 </r>
       <r>   -15.4453     0.0000     1.0000 </r>
       <r>   -15.1045     0.0000     1.0000 </r>
       <r>   -14.7637     0.0000     1.0000 </r>
       <r>   -14.4229     0.0000     1.0000 </r>
       <r>   -14.0821     0.0000     1.0000 </r>
       <r>   -13.7413     0.0000     1.0000 </r>
       <r>   -13.4005     0.0000     1.0000 </r>
       <r>   -13.0597     0.0000     1.0000 </r>
       <r>   -12.7189     0.0000     1.0000 </r>
       <r>   -12.3781     0.0000     1.0000 </r>
       <r>   -12.0373     0.0000     1.0000 </r>
       <r>   -11.6965     0.0000     1.0000 </r>
       <r>   -11.3557     0.0000     1.0000 </r>
       <r>   -11.0149     8.8026     3.9999 </r>
       <r>   -10.6741     0.0000     4.0000 </r>
       <r>   -10.3333     0.0000     4.0000 </r>
       <r>    -9.9925     0.0000     4.0000 </r>
       <r>    -9.6517     0.0000     4.0000 </r>
       <r>    -9.3109     0.0000     4.0000 </r>
       <r>    -8.9701     0.0000     4.0000 </r>
       <r>    -8.6293     0.0000     4.0000 </r>
       <r>    -8.2885     0.0000     4.0000 </r>
       <r>    -7.9477     0.0000     4.0000 </r>
       <r>    -7.6069     0.0000     4.0000 </r>
       <r>    -7.2661     0.0000     4.0000 </r>
       <r>    -6.9253     0.0000     4.0000 </r>
       <r>    -6.5845     0.0000     4.0000 </r>
       <r>    -6.2437     0.0000     4.0000 </r>
       <r>    -5.9029     0.1192     4.0406 </r>
       <r>    -5.5621     2.8151     5.0000 </r>
       <r>    -5.2213     0.0000     5.0000 </r>
       <r>    -4.8805     0.0000     5.0000 </r>
       <r>    -4.5397     0.0000     5.0000 </r>
       <r>    -4.1988     0.0000     5.0000 </r>
       <r>    -3.8580     0.0000     5.0000 </r>
       <r>    -3.5172     0.0000     5.0000 </r>
       <r>    -3.1764     0.0000     5.0000 </r>
       <r>    -2.8356     0.0000     5.0000 </r>
       <r>    -2.4948     0.0000     5.0000 </r>
       <r>    -2.1540     0.0000     5.0000 </r>
       <r>    -1.8132     0.0000     5.0000 </r>
       <r>    -1.4724     0.0000     5.0000 </r>
       <r>    -1.1316     0.0000     5.0000 </r>
       <r>    -0.7908     0.0000     5.0000 </r>
       <r>    -0.4500     0.0000     5.0000 </r>
       <r>    -0.1092     0.0000     5.0000 </r>
       <r>     0.2316     0.0000     5.0000 </r>
       <r>     0.5724     0.0000     5.0000 </r>
       <r>     0.9132     0.0000     5.0000 </r>
       <r>     1.2540     0.0000     5.0000 </r>
       <r>     1.5948     0.0000     5.0000 </r>
       <r>     1.9356     0.0000     5.0000 </r>
       <r>     2.2764     0.0000     5.0000 </r>
       <r>     2.6172     0.0000     5.0000 </r>
       <r>     2.9580     0.0000     5.0000 </r>
       <r>     3.2988     6.4416     7.1953 </r>
       <r>     3.6396     2.3612     8.0000 </r>
       <r>     3.9804     0.0000     8.0000 </r>
       <r>     4.3212     0.0000     8.0000 </r>
       <r>     4.6620     0.0000     8.0000 </r>
       <r>     5.0028     8.8027    11.0000 </r>
       <r>     5.3436     2.5758    11.8779 </r>
       <r>     5.6844     6.2269    14.0000 </r>
       <r>     6.0252     0.0000    14.0000 </r>
       <r>     6.3660     0.0000    14.0000 </r>
       <r>     6.7068     0.0000    14.0000 </r>
       <r>     7.0476     0.0000    14.0000 </r>
       <r>     7.3884     0.0000    14.0000 </r>
       <r>     7.7292     0.0000    14.0000 </r>
       <r>     8.0700     0.0000    14.0000 </r>
       <r>     8.4108     0.0000    14.0000 </r>
       <r>     8.7516     0.0000    14.0000 </r>
       <r>     9.0924     0.0000    14.0000 </r>
       <r>     9.4332     0.2621    14.0893 </r>
       <r>     9.7740     2.6722    15.0000 </r>
       <r>    10.1148     0.0000    15.0000 </r>
       <r>    10.4556     0.0000    15.0000 </r>
       <r>    10.7964     0.0000    15.0000 </r>
       <r>    11.1372     0.0000    15.0000 </r>
       <r>    11.4780     0.0000    15.0000 </r>
       <r>    11.8188     0.0000    15.0000 </r>
       <r>    12.1596     0.0000    15.0000 </r>
       <r>    12.5004     0.0000    15.0000 </r>
       <r>    12.8412     0.0000    15.0000 </r>
       <r>    13.1820     0.0000    15.0000 </r>
       <r>    13.5228     0.0000    15.0000 </r>
       <r>    13.8636     0.6679    15.2276 </r>
       <r>    14.2044     8.1349    18.0000 </r>
       <r>    14.5452     8.0177    20.7324 </r>
       <r>    14.8860     0.7851    21.0000 </r>
       <r>    15.2268     0.0000    21.0000 </r>
       <r>    15.5676     0.0000    21.0000 </r>
       <r>    15.9084     0.0000    21.0000 </r>
       <r>    16.2492     0.0000    21.0000 </r>
       <r>    16.5900     0.0000    21.0000 </r>
       <r>    16.9308     0.0000    21.0000 </r>
       <r>    17.2716     5.8618    22.9977 </r>
       <r>    17.6124     0.0000    23.0000 </r>
       <r>    17.9532     0.0000    23.0000 </r>
       <r>    18.2940     0.0000    23.0000 </r>
       <r>    18.6348     2.9343    24.0000 </r>
       <r>    18.9756     0.0000    24.0000 </r>
       <r>    19.3164     8.8028    27.0000 </r>
       <r>    19.6572     0.0000    27.0000 </r>
       <r>    19.9980     0.0000    27.0000 </r>
       <r>    20.3388     0.0000    27.0000 </r>
       <r>    20.6796     0.2573    27.0877 </r>
       <r>    21.0204     8.5455    30.0000 </r>
       <r>    21.3612     0.0000    30.0000 </r>
       <r>    21.7020     0.0000    30.0000 </r>
       <r>    22.0428     4.5126    31.5379 </r>
       <r>    22.3836     1.3559    32.0000 </r>
       <r>    22.7244     0.0000    32.0000 </r>
       <r>    23.0652     0.0000    32.0000 </r>
       <r>    23.4060     0.0000    32.0000 </r>
       <r>    23.7468     0.0000    32.0000 </r>
       <r>    24.0876     0.0000    32.0000 </r>
       <r>    24.4284     0.0000    32.0000 </r>
       <r>    24.7692     0.6537    32.2228 </r>
       <r>    25.1100     8.1491    35.0000 </r>
       <r>    25.4508     0.0000    35.0000 </r>
       <r>    25.7916     0.0000    35.0000 </r>
       <r>    26.1324     1.2789    35.4359 </r>
       <r>    26.4732     7.5239    38.0000 </r>
       <r>    26.8140     1.7193    38.5859 </r>
       <r>    27.1548     7.0835    41.0000 </r>
       <r>    27.4956     4.1030    42.3983 </r>
       <r>    27.8364     1.7655    43.0000 </r>
       <r>    28.1772     0.0000    43.0000 </r>
       <r>    28.5180     0.0000    43.0000 </r>
       <r>    28.8588     0.0000    43.0000 </r>
       <r>    29.1996     9.2248    46.1438 </r>
       <r>    29.5404     2.1288    47.0000 </r>
       <r>    29.8812     0.0000    47.0000 </r>
       <r>    30.2221     0.0000    47.0000 </r>
       <r>    30.5629     8.8005    49.9992 </r>
       <r>    30.9037     0.0000    50.0000 </r>
       <r>    31.2445     0.0000    50.0000 </r>
       <r>    31.5853     0.0000    50.0000 </r>
       <r>    31.9261     8.8002    52.9991 </r>
       <r>    32.2669     6.7594    55.3036 </r>
       <r>    32.6077     2.0434    56.0000 </r>
       <r>    32.9485     1.1750    56.4005 </r>
       <r>    33.2893     4.6935    58.0000 </r>
       <r>    33.6301     0.0000    58.0000 </r>
       <r>    33.9709     0.0000    58.0000 </r>
       <r>    34.3117     1.8648    58.6355 </r>
       <r>    34.6525     1.0695    59.0000 </r>
       <r>    34.9933     0.0000    59.0000 </r>
       <r>    35.3341     5.5761    60.9003 </r>
       <r>    35.6749     0.2924    61.0000 </r>
       <r>    36.0157     0.0000    61.0000 </r>
       <r>    36.3565     0.0000    61.0000 </r>
       <r>    36.6973     0.0000    61.0000 </r>
       <r>    37.0381     0.0000    61.0000 </r>
       <r>    37.3789     0.0000    61.0000 </r>
       <r>    37.7197     4.3817    62.4933 </r>
       <r>    38.0605     4.4211    64.0000 </r>
       <r>    38.4013     0.0000    64.0000 </r>
       <r>    38.7421     0.0000    64.0000 </r>
       <r>    39.0829     0.0000    64.0000 </r>
       <r>    39.4237     0.0000    64.0000 </r>
       <r>    39.7645     0.0000    64.0000 </r>
       <r>    40.1053     0.0000    64.0000 </r>
       <r>    40.4461     0.0000    64.0000 </r>
       <r>    40.7869     0.0246    64.0084 </r>
       <r>    41.1277     2.9097    65.0000 </r>
       <r>    41.4685     0.0000    65.0000 </r>
       <r>    41.8093     0.0000    65.0000 </r>
       <r>    42.1501     0.0000    65.0000 </r>
       <r>    42.4909     0.0000    65.0000 </r>
       <r>    42.8317     0.0000    65.0000 </r>
       <r>    43.1725     0.0000    65.0000 </r>
       <r>    43.5133     0.0000    65.0000 </r>
       <r>    43.8541     0.0000    65.0000 </r>
       <r>    44.1949     0.4015    65.1368 </r>
       <r>    44.5357     8.4013    68.0000 </r>
       <r>    44.8765     0.0000    68.0000 </r>
       <r>    45.2173     8.8006    70.9992 </r>
       <r>    45.5581     0.0000    71.0000 </r>
       <r>    45.8989     0.0000    71.0000 </r>
       <r>    46.2397     5.6186    72.9148 </r>
       <r>    46.5805     9.0452    75.9975 </r>
       <r>    46.9213     0.0000    76.0000 </r>
       <r>    47.2621     0.0394    76.0134 </r>
       <r>    47.6029     6.4003    78.1947 </r>
       <r>    47.9437     5.3298    80.0111 </r>
       <r>    48.2845     4.8657    81.6693 </r>
       <r>    48.6253     6.8388    84.0000 </r>
       <r>    48.9661     0.0000    84.0000 </r>
       <r>    49.3069     0.0000    84.0000 </r>
       <r>    49.6477     0.0000    84.0000 </r>
       <r>    49.9885     0.0000    84.0000 </r>
       <r>    50.3293     0.0000    84.0000 </r>
       <r>    50.6701     2.8222    84.9618 </r>
       <r>    51.0109     9.9511    88.3531 </r>
       <r>    51.3517     1.8980    89.0000 </r>
       <r>    51.6925     0.0000    89.0000 </r>
       <r>    52.0333     0.0000    89.0000 </r>
       <r>    52.3741     0.0000    89.0000 </r>
       <r>    52.7149     9.4344    92.2153 </r>
       <r>    53.0557     7.9441    95.0000 </r>
       <r>    53.3965     0.0000    95.0000 </r>
       <r>    53.7373     0.0115    95.0039 </r>
       <r>    54.0781     8.7913    98.0000 </r>
       <r>    54.4189     0.0000    98.0000 </r>
       <r>    54.7597     0.0000    98.0000 </r>
       <r>    55.1005     0.3802    98.1296 </r>
       <r>    55.4413    15.2068   103.3121 </r>
       <r>    55.7821    13.7557   108.0000 </r>
       <r>    56.1229     0.0000   108.0000 </r>
       <r>    56.4637     8.7778   110.9915 </r>
       <r>    56.8045     0.3002   111.1023 </r>
       <r>    57.1453     4.2211   112.5409 </r>
       <r>    57.4861     1.3472   113.0000 </r>
       <r>    57.8269     0.0000   113.0000 </r>
       <r>    58.1677     0.3933   113.1340 </r>
       <r>    58.5085     2.5410   114.0000 </r>
       <r>    58.8493     5.8685   116.0000 </r>
       <r>    59.1901     0.0000   116.0000 </r>
       <r>    59.5309     0.0000   116.0000 </r>
       <r>    59.8717     0.0000   116.0000 </r>
       <r>    60.2125     0.0000   116.0000 </r>
       <r>    60.5533     0.0000   116.0000 </r>
       <r>    60.8941     0.0000   116.0000 </r>
       <r>    61.2349     0.0001   116.0000 </r>
       <r>    61.5757     8.8027   119.0000 </r>
       <r>    61.9165     0.0000   119.0000 </r>
       <r>    62.2573     0.0025   119.0009 </r>
       <r>    62.5981    10.2183   122.4833 </r>
       <r>    62.9389     1.5162   123.0000 </r>
       <r>    63.2797     0.0000   123.0000 </r>
       <r>    63.6205     0.0000   123.0000 </r>
       <r>    63.9613     0.0000   123.0000 </r>
       <r>    64.3021     0.0000   123.0000 </r>
       <r>    64.6429     2.7534   123.9384 </r>
       <r>    64.9838     0.1809   124.0000 </r>
       <r>    65.3246     0.0000   124.0000 </r>
       <r>    65.6654     0.0000   124.0000 </r>
       <r>    66.0062     0.0000   124.0000 </r>
       <r>    66.3470     0.0000   124.0000 </r>
       <r>    66.6878     5.4841   125.8690 </r>
       <r>    67.0286     6.2529   128.0000 </r>
       <r>    67.3694     0.0000   128.0000 </r>
       <r>    67.7102     0.0000   128.0000 </r>
       <r>    68.0510     0.0000   128.0000 </r>
       <r>    68.3918     0.0000   128.0000 </r>
       <r>    68.7326     0.0000   128.0000 </r>
       <r>    69.0734     0.0000   128.0000 </r>
       <r>    69.4142     0.0000   128.0000 </r>
       <r>    69.7550     0.0000   128.0000 </r>
       <r>    70.0958     0.0000   128.0000 </r>
       <r>    70.4366     0.0000   128.0000 </r>
       <r>    70.7774     0.0000   128.0000 </r>
       <r>    71.1182     0.0000   128.0000 </r>
       <r>    71.4590     0.0000   128.0000 </r>
      </set>
      <set comment="spin 2">
       <r>   -30.7813     0.0000     0.0000 </r>
       <r>   -30.4405     0.0000     0.0000 </r>
       <r>   -30.0997     0.0000     0.0000 </r>
       <r>   -29.7589     0.0000     0.0000 </r>
       <r>   -29.4181     0.0000     0.0000 </r>
       <r>   -29.0773     0.0000     0.0000 </r>
       <r>   -28.7365     0.0000     0.0000 </r>
       <r>   -28.3957     0.0000     0.0000 </r>
       <r>   -28.0549     0.0000     0.0000 </r>
       <r>   -27.7141     0.0000     0.0000 </r>
       <r>   -27.3733     0.0000     0.0000 </r>
       <r>   -27.0325     0.0000     0.0000 </r>
       <r>   -26.6917     0.0000     0.0000 </r>
       <r>   -26.3509     0.0000     0.0000 </r>
       <r>   -26.0101     2.9336     0.9998 </r>
       <r>   -25.6693     0.0000     1.0000 </r>
       <r>   -25.3285     0.0000     1.0000 </r>
       <r>   -24.9877     0.0000     1.0000 </r>
       <r>   -24.6469     0.0000     1.0000 </r>
       <r>   -24.3061     0.0000     1.0000 </r>
       <r>   -23.9653     0.0000     1.0000 </r>
       <r>   -23.6245     0.0000     1.0000 </r>
       <r>   -23.2837     0.0000     1.0000 </r>
       <r>   -22.9429     0.0000     1.0000 </r>
       <r>   -22.6021     0.0000     1.0000 </r>
       <r>   -22.2613     0.0000     1.0000 </r>
       <r>   -21.9205     0.0000     1.0000 </r>
       <r>   -21.5797     0.0000     1.0000 </r>
       <r>   -21.2389     0.0000     1.0000 </r>
       <r>   -20.8981     0.0000     1.0000 </r>
       <r>   -20.5573     0.0000     1.0000 </r>
       <r>   -20.2165     0.0000     1.0000 </r>
       <r>   -19.8757     0.0000     1.0000 </r>
       <r>   -19.5349     0.0000     1.0000 </r>
       <r>   -19.1941     0.0000     1.0000 </r>
       <r>   -18.8533     0.0000     1.0000 </r>
       <r>   -18.5125     0.0000     1.0000 </r>
       <r>   -18.1717     0.0000     1.0000 </r>
       <r>   -17.8309     0.0000     1.0000 </r>
       <r>   -17.4901     0.0000     1.0000 </r>
       <r>   -17.1493     0.0000     1.0000 </r>
       <r>   -16.8085     0.0000     1.0000 </r>
       <r>   -16.4677     0.0000     1.0000 </r>
       <r>   -16.1269     0.0000     1.0000 </r>
       <r>   -15.7861     0.0000     1.0000 </r>
       <r>   -15.4453     0.0000     1.0000 </r>
       <r>   -15.1045     0.0000     1.0000 </r>
       <r>   -14.7637     0.0000     1.0000 </r>
       <r>   -14.4229     0.0000     1.0000 </r>
       <r>   -14.0821     0.0000     1.0000 </r>
       <r>   -13.7413     0.0000     1.0000 </r>
       <r>   -13.4005     0.0000     1.0000 </r>
       <r>   -13.0597     0.0000     1.0000 </r>
       <r>   -12.7189     0.0000     1.0000 </r>
       <r>   -12.3781     0.0000     1.0000 </r>
       <r>   -12.0373     0.0000     1.0000 </r>
       <r>   -11.6965     0.0000     1.0000 </r>
       <r>   -11.3557     0.0000     1.0000 </r>
       <r>   -11.0149     8.8026     3.9999 </r>
       <r>   -10.6741     0.0000     4.0000 </r>
       <r>   -10.3333     0.0000     4.0000 </r>
       <r>    -9.9925     0.0000     4.0000 </r>
       <r>    -9.6517     0.0000     4.0000 </r>
       <r>    -9.3109     0.0000     4.0000 </r>
       <r>    -8.9701     0.0000     4.0000 </r>
       <r>    -8.6293     0.0000     4.0000 </r>
       <r>    -8.2885     0.0000     4.0000 </r>
       <r>    -7.9477     0.0000     4.0000 </r>
       <r>    -7.6069     0.0000     4.0000 </r>
       <r>    -7.2661     0.0000     4.0000 </r>
       <r>    -6.9253     0.0000     4.0000 </r>
       <r>    -6.5845     0.0000     4.0000 </r>
       <r>    -6.2437     0.0000     4.0000 </r>
       <r>    -5.9029     0.1192     4.0406 </r>
       <r>    -5.5621     2.8151     5.0000 </r>
       <r>    -5.2213     0.0000     5.0000 </r>
       <r>    -4.8805     0.0000     5.0000 </r>
       <r>    -4.5397     0.0000     5.0000 </r>
       <r>    -4.1988     0.0000     5.0000 </r>
       <r>    -3.8580     0.0000     5.0000 </r>
       <r>    -3.5172     0.0000     5.0000 </r>
       <r>    -3.1764     0.0000     5.0000 </r>
       <r>    -2.8356     0.0000     5.0000 </r>
       <r>    -2.4948     0.0000     5.0000 </r>
       <r>    -2.1540     0.0000     5.0000 </r>
       <r>    -1.8132     0.0000     5.0000 </r>
       <r>    -1.4724     0.0000     5.0000 </r>
       <r>    -1.1316     0.0000     5.0000 </r>
       <r>    -0.7908     0.0000     5.0000 </r>
       <r>    -0.4500     0.0000     5.0000 </r>
       <r>    -0.1092     0.0000     5.0000 </r>
       <r>     0.2316     0.0000     5.0000 </r>
       <r>     0.5724     0.0000     5.0000 </r>
       <r>     0.9132     0.0000     5.0000 </r>
       <r>     1.2540     0.0000     5.0000 </r>
       <r>     1.5948     0.0000     5.0000 </r>
       <r>     1.9356     0.0000     5.0000 </r>
       <r>     2.2764     0.0000     5.0000 </r>
       <r>     2.6172     0.0000     5.0000 </r>
       <r>     2.9580     0.0000     5.0000 </r>
       <r>     3.2988     6.4416     7.1953 </r>
       <r>     3.6396     2.3612     8.0000 </r>
       <r>     3.9804     0.0000     8.0000 </r>
       <r>     4.3212     0.0000     8.0000 </r>
       <r>     4.6620     0.0000     8.0000 </r>
       <r>     5.0028     8.8027    11.0000 </r>
       <r>     5.3436     2.5758    11.8778 </r>
       <r>     5.6844     6.2270    14.0000 </r>
       <r>     6.0252     0.0000    14.0000 </r>
       <r>     6.3660     0.0000    14.0000 </r>
       <r>     6.7068     0.0000    14.0000 </r>
       <r>     7.0476     0.0000    14.0000 </r>
       <r>     7.3884     0.0000    14.0000 </r>
       <r>     7.7292     0.0000    14.0000 </r>
       <r>     8.0700     0.0000    14.0000 </r>
       <r>     8.4108     0.0000    14.0000 </r>
       <r>     8.7516     0.0000    14.0000 </r>
       <r>     9.0924     0.0000    14.0000 </r>
       <r>     9.4332     0.2620    14.0893 </r>
       <r>     9.7740     2.6723    15.0000 </r>
       <r>    10.1148     0.0000    15.0000 </r>
       <r>    10.4556     0.0000    15.0000 </r>
       <r>    10.7964     0.0000    15.0000 </r>
       <r>    11.1372     0.0000    15.0000 </r>
       <r>    11.4780     0.0000    15.0000 </r>
       <r>    11.8188     0.0000    15.0000 </r>
       <r>    12.1596     0.0000    15.0000 </r>
       <r>    12.5004     0.0000    15.0000 </r>
       <r>    12.8412     0.0000    15.0000 </r>
       <r>    13.1820     0.0000    15.0000 </r>
       <r>    13.5228     0.0000    15.0000 </r>
       <r>    13.8636     0.6679    15.2276 </r>
       <r>    14.2044     8.1349    18.0000 </r>
       <r>    14.5452     8.0177    20.7324 </r>
       <r>    14.8860     0.7851    21.0000 </r>
       <r>    15.2268     0.0000    21.0000 </r>
       <r>    15.5676     0.0000    21.0000 </r>
       <r>    15.9084     0.0000    21.0000 </r>
       <r>    16.2492     0.0000    21.0000 </r>
       <r>    16.5900     0.0000    21.0000 </r>
       <r>    16.9308     0.0000    21.0000 </r>
       <r>    17.2716     5.8618    22.9977 </r>
       <r>    17.6124     0.0000    23.0000 </r>
       <r>    17.9532     0.0000    23.0000 </r>
       <r>    18.2940     0.0000    23.0000 </r>
       <r>    18.6348     2.9343    24.0000 </r>
       <r>    18.9756     0.0000    24.0000 </r>
       <r>    19.3164     8.8028    27.0000 </r>
       <r>    19.6572     0.0000    27.0000 </r>
       <r>    19.9980     0.0000    27.0000 </r>
       <r>    20.3388     0.0000    27.0000 </r>
       <r>    20.6796     0.2573    27.0877 </r>
       <r>    21.0204     8.5455    30.0000 </r>
       <r>    21.3612     0.0000    30.0000 </r>
       <r>    21.7020     0.0000    30.0000 </r>
       <r>    22.0428     4.5125    31.5379 </r>
       <r>    22.3836     1.3560    32.0000 </r>
       <r>    22.7244     0.0000    32.0000 </r>
       <r>    23.0652     0.0000    32.0000 </r>
       <r>    23.4060     0.0000    32.0000 </r>
       <r>    23.7468     0.0000    32.0000 </r>
       <r>    24.0876     0.0000    32.0000 </r>
       <r>    24.4284     0.0000    32.0000 </r>
       <r>    24.7692     0.6536    32.2227 </r>
       <r>    25.1100     8.1492    35.0000 </r>
       <r>    25.4508     0.0000    35.0000 </r>
       <r>    25.7916     0.0000    35.0000 </r>
       <r>    26.1324     1.2790    35.4359 </r>
       <r>    26.4732     7.5238    38.0000 </r>
       <r>    26.8140     1.7193    38.5859 </r>
       <r>    27.1548     7.0835    41.0000 </r>
       <r>    27.4956     4.1030    42.3983 </r>
       <r>    27.8364     1.7655    43.0000 </r>
       <r>    28.1772     0.0000    43.0000 </r>
       <r>    28.5180     0.0000    43.0000 </r>
       <r>    28.8588     0.0000    43.0000 </r>
       <r>    29.1996     9.2243    46.1437 </r>
       <r>    29.5404     2.1292    47.0000 </r>
       <r>    29.8812     0.0000    47.0000 </r>
       <r>    30.2221     0.0000    47.0000 </r>
       <r>    30.5629     8.8005    49.9992 </r>
       <r>    30.9037     0.0000    50.0000 </r>
       <r>    31.2445     0.0000    50.0000 </r>
       <r>    31.5853     0.0000    50.0000 </r>
       <r>    31.9261     8.8002    52.9991 </r>
       <r>    32.2669     6.7593    55.3036 </r>
       <r>    32.6077     2.0435    56.0000 </r>
       <r>    32.9485     1.1750    56.4004 </r>
       <r>    33.2893     4.6935    58.0000 </r>
       <r>    33.6301     0.0000    58.0000 </r>
       <r>    33.9709     0.0000    58.0000 </r>
       <r>    34.3117     1.8644    58.6354 </r>
       <r>    34.6525     1.0699    59.0000 </r>
       <r>    34.9933     0.0000    59.0000 </r>
       <r>    35.3341     5.5761    60.9003 </r>
       <r>    35.6749     0.2924    61.0000 </r>
       <r>    36.0157     0.0000    61.0000 </r>
       <r>    36.3565     0.0000    61.0000 </r>
       <r>    36.6973     0.0000    61.0000 </r>
       <r>    37.0381     0.0000    61.0000 </r>
       <r>    37.3789     0.0000    61.0000 </r>
       <r>    37.7197     4.3817    62.4933 </r>
       <r>    38.0605     4.4211    64.0000 </r>
       <r>    38.4013     0.0000    64.0000 </r>
       <r>    38.7421     0.0000    64.0000 </r>
       <r>    39.0829     0.0000    64.0000 </r>
       <r>    39.4237     0.0000    64.0000 </r>
       <r>    39.7645     0.0000    64.0000 </r>
       <r>    40.1053     0.0000    64.0000 </r>
       <r>    40.4461     0.0000    64.0000 </r>
       <r>    40.7869     0.0246    64.0084 </r>
       <r>    41.1277     2.9097    65.0000 </r>
       <r>    41.4685     0.0000    65.0000 </r>
       <r>    41.8093     0.0000    65.0000 </r>
       <r>    42.1501     0.0000    65.0000 </r>
       <r>    42.4909     0.0000    65.0000 </r>
       <r>    42.8317     0.0000    65.0000 </r>
       <r>    43.1725     0.0000    65.0000 </r>
       <r>    43.5133     0.0000    65.0000 </r>
       <r>    43.8541     0.0000    65.0000 </r>
       <r>    44.1949     0.4014    65.1368 </r>
       <r>    44.5357     8.4014    68.0000 </r>
       <r>    44.8765     0.0000    68.0000 </r>
       <r>    45.2173     8.8006    70.9992 </r>
       <r>    45.5581     0.0000    71.0000 </r>
       <r>    45.8989     0.0000    71.0000 </r>
       <r>    46.2397     5.6186    72.9148 </r>
       <r>    46.5805     9.0452    75.9975 </r>
       <r>    46.9213     0.0000    76.0000 </r>
       <r>    47.2621     0.0394    76.0134 </r>
       <r>    47.6029     6.4002    78.1946 </r>
       <r>    47.9437     5.3299    80.0111 </r>
       <r>    48.2845     4.8657    81.6693 </r>
       <r>    48.6253     6.8388    84.0000 </r>
       <r>    48.9661     0.0000    84.0000 </r>
       <r>    49.3069     0.0000    84.0000 </r>
       <r>    49.6477     0.0000    84.0000 </r>
       <r>    49.9885     0.0000    84.0000 </r>
       <r>    50.3293     0.0000    84.0000 </r>
       <r>    50.6701     2.8222    84.9618 </r>
       <r>    51.0109     9.9511    88.3531 </r>
       <r>    51.3517     1.8981    89.0000 </r>
       <r>    51.6925     0.0000    89.0000 </r>
       <r>    52.0333     0.0000    89.0000 </r>
       <r>    52.3741     0.0000    89.0000 </r>
       <r>    52.7149     9.4343    92.2152 </r>
       <r>    53.0557     7.9441    95.0000 </r>
       <r>    53.3965     0.0000    95.0000 </r>
       <r>    53.7373     0.0115    95.0039 </r>
       <r>    54.0781     8.7913    98.0000 </r>
       <r>    54.4189     0.0000    98.0000 </r>
       <r>    54.7597     0.0000    98.0000 </r>
       <r>    55.1005     0.3802    98.1296 </r>
       <r>    55.4413    15.2066   103.3120 </r>
       <r>    55.7821    13.7558   108.0000 </r>
       <r>    56.1229     0.0000   108.0000 </r>
       <r>    56.4637     8.7778   110.9915 </r>
       <r>    56.8045     0.3002   111.1023 </r>
       <r>    57.1453     4.2211   112.5409 </r>
       <r>    57.4861     1.3472   113.0000 </r>
       <r>    57.8269     0.0000   113.0000 </r>
       <r>    58.1677     0.3933   113.1340 </r>
       <r>    58.5085     2.5410   114.0000 </r>
       <r>    58.8493     5.8685   116.0000 </r>
       <r>    59.1901     0.0000   116.0000 </r>
       <r>    59.5309     0.0000   116.0000 </r>
       <r>    59.8717     0.0000   116.0000 </r>
       <r>    60.2125     0.0000   116.0000 </r>
       <r>    60.5533     0.0000   116.0000 </r>
       <r>    60.8941     0.0000   116.0000 </r>
       <r>    61.2349     0.0001   116.0000 </r>
       <r>    61.5757     8.8027   119.0000 </r>
       <r>    61.9165     0.0000   119.0000 </r>
       <r>    62.2573     0.0025   119.0009 </r>
       <r>    62.5981    10.2182   122.4832 </r>
       <r>    62.9389     1.5164   123.0000 </r>
       <r>    63.2797     0.0000   123.0000 </r>
       <r>    63.6205     0.0000   123.0000 </r>
       <r>    63.9613     0.0000   123.0000 </r>
       <r>    64.3021     0.0000   123.0000 </r>
       <r>    64.6429     2.7532   123.9383 </r>
       <r>    64.9838     0.1811   124.0000 </r>
       <r>    65.3246     0.0000   124.0000 </r>
       <r>    65.6654     0.0000   124.0000 </r>
       <r>    66.0062     0.0000   124.0000 </r>
       <r>    66.3470     0.0000   124.0000 </r>
       <r>    66.6878     5.4841   125.8690 </r>
       <r>    67.0286     6.2529   128.0000 </r>
       <r>    67.3694     0.0000   128.0000 </r>
       <r>    67.7102     0.0000   128.0000 </r>
       <r>    68.0510     0.0000   128.0000 </r>
       <r>    68.3918     0.0000   128.0000 </r>
       <r>    68.7326     0.0000   128.0000 </r>
       <r>    69.0734     0.0000   128.0000 </r>
       <r>    69.4142     0.0000   128.0000 </r>
       <r>    69.7550     0.0000   128.0000 </r>
       <r>    70.0958     0.0000   128.0000 </r>
       <r>    70.4366     0.0000   128.0000 </r>
       <r>    70.7774     0.0000   128.0000 </r>
       <r>    71.1182     0.0000   128.0000 </r>
       <r>    71.4590     0.0000   128.0000 </r>
      </set>
     </set>
    </array>
   </total>
   <partial>
    <array>
     <dimension dim="1">gridpoints</dimension>
     <dimension dim="2">spin</dimension>
     <dimension dim="3">ion</dimension>
     <field>energy</field>
     <field>    s</field>
     <field>   py</field>
     <field>   pz</field>
     <field>   px</field>
     <field>  dxy</field>
     <field>  dyz</field>
     <field>  dz2</field>
     <field>  dxz</field>
     <field>x2-y2</field>
     <set>
      <set comment="ion 1">
       <set comment="spin 1">
        <r>   -30.7813     0.0000     0.0000     0.0000     0.0000     0.0000     0.0000     0.0000     0.0000     0.0000 </r>
        <r>   -30.4405     0.0000     0.0000     0.0000     0.0000     0.0000     0.0000     0.0000     0.0000     0.0000 </r>
        <r>   -30.0997     0.0000     0.0000     0.0000     0.0000     0.0000     0.0000     0.0000     0.0000     0.0000 </r>
        <r>   -29.7589     0.0000     0.0000     0.0000     0.0000     0.0000     0.0000     0.0000     0.0000     0.0000 </r>
        <r>   -29.4181     0.0000     0.0000     0.0000     0.0000     0.0000     0.0000     0.0000     0.0000     0.0000 </r>
        <r>   -29.0773     0.0000     0.0000     0.0000     0.0000     0.0000     0.0000     0.0000     0.0000     0.0000 </r>
        <r>   -28.7365     0.0000     0.0000     0.0000     0.0000     0.0000     0.0000     0.0000     0.0000     0.0000 </r>
        <r>   -28.3957     0.0000     0.0000     0.0000     0.0000     0.0000     0.0000     0.0000     0.0000     0.0000 </r>
        <r>   -28.0549     0.0000     0.0000     0.0000     0.0000     0.0000     0.0000     0.0000     0.0000     0.0000 </r>
        <r>   -27.7141     0.0000     0.0000     0.0000     0.0000     0.0000     0.0000     0.0000     0.0000     0.0000 </r>
        <r>   -27.3733     0.0000     0.0000     0.0000     0.0000     0.0000     0.0000     0.0000     0.0000     0.0000 </r>
        <r>   -27.0325     0.0000     0.0000     0.0000     0.0000     0.0000     0.0000     0.0000     0.0000     0.0000 </r>
        <r>   -26.6917     0.0000     0.0000     0.0000     0.0000     0.0000     0.0000     0.0000     0.0000     0.0000 </r>
        <r>   -26.3509     0.0000     0.0000     0.0000     0.0000     0.0000     0.0000     0.0000     0.0000     0.0000 </r>
        <r>   -26.0101     2.8626     0.0000     0.0000     0.0000     0.0000     0.0000     0.0000     0.0000     0.0000 </r>
        <r>   -25.6693     0.0000     0.0000     0.0000     0.0000     0.0000     0.0000     0.0000     0.0000     0.0000 </r>
        <r>   -25.3285     0.0000     0.0000     0.0000     0.0000     0.0000     0.0000     0.0000     0.0000     0.0000 </r>
        <r>   -24.9877     0.0000     0.0000     0.0000     0.0000     0.0000     0.0000     0.0000     0.0000     0.0000 </r>
        <r>   -24.6469     0.0000     0.0000     0.0000     0.0000     0.0000     0.0000     0.0000     0.0000     0.0000 </r>
        <r>   -24.3061     0.0000     0.0000     0.0000     0.0000     0.0000     0.0000     0.0000     0.0000     0.0000 </r>
        <r>   -23.9653     0.0000     0.0000     0.0000     0.0000     0.0000     0.0000     0.0000     0.0000     0.0000 </r>
        <r>   -23.6245     0.0000     0.0000     0.0000     0.0000     0.0000     0.0000     0.0000     0.0000     0.0000 </r>
        <r>   -23.2837     0.0000     0.0000     0.0000     0.0000     0.0000     0.0000     0.0000     0.0000     0.0000 </r>
        <r>   -22.9429     0.0000     0.0000     0.0000     0.0000     0.0000     0.0000     0.0000     0.0000     0.0000 </r>
        <r>   -22.6021     0.0000     0.0000     0.0000     0.0000     0.0000     0.0000     0.0000     0.0000     0.0000 </r>
        <r>   -22.2613     0.0000     0.0000     0.0000     0.0000     0.0000     0.0000     0.0000     0.0000     0.0000 </r>
        <r>   -21.9205     0.0000     0.0000     0.0000     0.0000     0.0000     0.0000     0.0000     0.0000     0.0000 </r>
        <r>   -21.5797     0.0000     0.0000     0.0000     0.0000     0.0000     0.0000     0.0000     0.0000     0.0000 </r>
        <r>   -21.2389     0.0000     0.0000     0.0000     0.0000     0.0000     0.0000     0.0000     0.0000     0.0000 </r>
        <r>   -20.8981     0.0000     0.0000     0.0000     0.0000     0.0000     0.0000     0.0000     0.0000     0.0000 </r>
        <r>   -20.5573     0.0000     0.0000     0.0000     0.0000     0.0000     0.0000     0.0000     0.0000     0.0000 </r>
        <r>   -20.2165     0.0000     0.0000     0.0000     0.0000     0.0000     0.0000     0.0000     0.0000     0.0000 </r>
        <r>   -19.8757     0.0000     0.0000     0.0000     0.0000     0.0000     0.0000     0.0000     0.0000     0.0000 </r>
        <r>   -19.5349     0.0000     0.0000     0.0000     0.0000     0.0000     0.0000     0.0000     0.0000     0.0000 </r>
        <r>   -19.1941     0.0000     0.0000     0.0000     0.0000     0.0000     0.0000     0.0000     0.0000     0.0000 </r>
        <r>   -18.8533     0.0000     0.0000     0.0000     0.0000     0.0000     0.0000     0.0000     0.0000     0.0000 </r>
        <r>   -18.5125     0.0000     0.0000     0.0000     0.0000     0.0000     0.0000     0.0000     0.0000     0.0000 </r>
        <r>   -18.1717     0.0000     0.0000     0.0000     0.0000     0.0000     0.0000     0.0000     0.0000     0.0000 </r>
        <r>   -17.8309     0.0000     0.0000     0.0000     0.0000     0.0000     0.0000     0.0000     0.0000     0.0000 </r>
        <r>   -17.4901     0.0000     0.0000     0.0000     0.0000     0.0000     0.0000     0.0000     0.0000     0.0000 </r>
        <r>   -17.1493     0.0000     0.0000     0.0000     0.0000     0.0000     0.0000     0.0000     0.0000     0.0000 </r>
        <r>   -16.8085     0.0000     0.0000     0.0000     0.0000     0.0000     0.0000     0.0000     0.0000     0.0000 </r>
        <r>   -16.4677     0.0000     0.0000     0.0000     0.0000     0.0000     0.0000     0.0000     0.0000     0.0000 </r>
        <r>   -16.1269     0.0000     0.0000     0.0000     0.0000     0.0000     0.0000     0.0000     0.0000     0.0000 </r>
        <r>   -15.7861     0.0000     0.0000     0.0000     0.0000     0.0000     0.0000     0.0000     0.0000     0.0000 </r>
        <r>   -15.4453     0.0000     0.0000     0.0000     0.0000     0.0000     0.0000     0.0000     0.0000     0.0000 </r>
        <r>   -15.1045     0.0000     0.0000     0.0000     0.0000     0.0000     0.0000     0.0000     0.0000     0.0000 </r>
        <r>   -14.7637     0.0000     0.0000     0.0000     0.0000     0.0000     0.0000     0.0000     0.0000     0.0000 </r>
        <r>   -14.4229     0.0000     0.0000     0.0000     0.0000     0.0000     0.0000     0.0000     0.0000     0.0000 </r>
        <r>   -14.0821     0.0000     0.0000     0.0000     0.0000     0.0000     0.0000     0.0000     0.0000     0.0000 </r>
        <r>   -13.7413     0.0000     0.0000     0.0000     0.0000     0.0000     0.0000     0.0000     0.0000     0.0000 </r>
        <r>   -13.4005     0.0000     0.0000     0.0000     0.0000     0.0000     0.0000     0.0000     0.0000     0.0000 </r>
        <r>   -13.0597     0.0000     0.0000     0.0000     0.0000     0.0000     0.0000     0.0000     0.0000     0.0000 </r>
        <r>   -12.7189     0.0000     0.0000     0.0000     0.0000     0.0000     0.0000     0.0000     0.0000     0.0000 </r>
        <r>   -12.3781     0.0000     0.0000     0.0000     0.0000     0.0000     0.0000     0.0000     0.0000     0.0000 </r>
        <r>   -12.0373     0.0000     0.0000     0.0000     0.0000     0.0000     0.0000     0.0000     0.0000     0.0000 </r>
        <r>   -11.6965     0.0000     0.0000     0.0000     0.0000     0.0000     0.0000     0.0000     0.0000     0.0000 </r>
        <r>   -11.3557     0.0000     0.0000     0.0000     0.0000     0.0000     0.0000     0.0000     0.0000     0.0000 </r>
        <r>   -11.0149     0.0000     2.7221     2.7221     2.7221     0.0000     0.0000     0.0000     0.0000     0.0000 </r>
        <r>   -10.6741     0.0000     0.0000     0.0000     0.0000     0.0000     0.0000     0.0000     0.0000     0.0000 </r>
        <r>   -10.3333     0.0000     0.0000     0.0000     0.0000     0.0000     0.0000     0.0000     0.0000     0.0000 </r>
        <r>    -9.9925     0.0000     0.0000     0.0000     0.0000     0.0000     0.0000     0.0000     0.0000     0.0000 </r>
        <r>    -9.6517     0.0000     0.0000     0.0000     0.0000     0.0000     0.0000     0.0000     0.0000     0.0000 </r>
        <r>    -9.3109     0.0000     0.0000     0.0000     0.0000     0.0000     0.0000     0.0000     0.0000     0.0000 </r>
        <r>    -8.9701     0.0000     0.0000     0.0000     0.0000     0.0000     0.0000     0.0000     0.0000     0.0000 </r>
        <r>    -8.6293     0.0000     0.0000     0.0000     0.0000     0.0000     0.0000     0.0000     0.0000     0.0000 </r>
        <r>    -8.2885     0.0000     0.0000     0.0000     0.0000     0.0000     0.0000     0.0000     0.0000     0.0000 </r>
        <r>    -7.9477     0.0000     0.0000     0.0000     0.0000     0.0000     0.0000     0.0000     0.0000     0.0000 </r>
        <r>    -7.6069     0.0000     0.0000     0.0000     0.0000     0.0000     0.0000     0.0000     0.0000     0.0000 </r>
        <r>    -7.2661     0.0000     0.0000     0.0000     0.0000     0.0000     0.0000     0.0000     0.0000     0.0000 </r>
        <r>    -6.9253     0.0000     0.0000     0.0000     0.0000     0.0000     0.0000     0.0000     0.0000     0.0000 </r>
        <r>    -6.5845     0.0000     0.0000     0.0000     0.0000     0.0000     0.0000     0.0000     0.0000     0.0000 </r>
        <r>    -6.2437     0.0000     0.0000     0.0000     0.0000     0.0000     0.0000     0.0000     0.0000     0.0000 </r>
        <r>    -5.9029     0.0017     0.0000     0.0000     0.0000     0.0000     0.0000     0.0000     0.0000     0.0000 </r>
        <r>    -5.5621     0.0408     0.0000     0.0000     0.0000     0.0000     0.0000     0.0000     0.0000     0.0000 </r>
        <r>    -5.2213     0.0000     0.0000     0.0000     0.0000     0.0000     0.0000     0.0000     0.0000     0.0000 </r>
        <r>    -4.8805     0.0000     0.0000     0.0000     0.0000     0.0000     0.0000     0.0000     0.0000     0.0000 </r>
        <r>    -4.5397     0.0000     0.0000     0.0000     0.0000     0.0000     0.0000     0.0000     0.0000     0.0000 </r>
        <r>    -4.1988     0.0000     0.0000     0.0000     0.0000     0.0000     0.0000     0.0000     0.0000     0.0000 </r>
        <r>    -3.8580     0.0000     0.0000     0.0000     0.0000     0.0000     0.0000     0.0000     0.0000     0.0000 </r>
        <r>    -3.5172     0.0000     0.0000     0.0000     0.0000     0.0000     0.0000     0.0000     0.0000     0.0000 </r>
        <r>    -3.1764     0.0000     0.0000     0.0000     0.0000     0.0000     0.0000     0.0000     0.0000     0.0000 </r>
        <r>    -2.8356     0.0000     0.0000     0.0000     0.0000     0.0000     0.0000     0.0000     0.0000     0.0000 </r>
        <r>    -2.4948     0.0000     0.0000     0.0000     0.0000     0.0000     0.0000     0.0000     0.0000     0.0000 </r>
        <r>    -2.1540     0.0000     0.0000     0.0000     0.0000     0.0000     0.0000     0.0000     0.0000     0.0000 </r>
        <r>    -1.8132     0.0000     0.0000     0.0000     0.0000     0.0000     0.0000     0.0000     0.0000     0.0000 </r>
        <r>    -1.4724     0.0000     0.0000     0.0000     0.0000     0.0000     0.0000     0.0000     0.0000     0.0000 </r>
        <r>    -1.1316     0.0000     0.0000     0.0000     0.0000     0.0000     0.0000     0.0000     0.0000     0.0000 </r>
        <r>    -0.7908     0.0000     0.0000     0.0000     0.0000     0.0000     0.0000     0.0000     0.0000     0.0000 </r>
        <r>    -0.4500     0.0000     0.0000     0.0000     0.0000     0.0000     0.0000     0.0000     0.0000     0.0000 </r>
        <r>    -0.1092     0.0000     0.0000     0.0000     0.0000     0.0000     0.0000     0.0000     0.0000     0.0000 </r>
        <r>     0.2316     0.0000     0.0000     0.0000     0.0000     0.0000     0.0000     0.0000     0.0000     0.0000 </r>
        <r>     0.5724     0.0000     0.0000     0.0000     0.0000     0.0000     0.0000     0.0000     0.0000     0.0000 </r>
        <r>     0.9132     0.0000     0.0000     0.0000     0.0000     0.0000     0.0000     0.0000     0.0000     0.0000 </r>
        <r>     1.2540     0.0000     0.0000     0.0000     0.0000     0.0000     0.0000     0.0000     0.0000     0.0000 </r>
        <r>     1.5948     0.0000     0.0000     0.0000     0.0000     0.0000     0.0000     0.0000     0.0000     0.0000 </r>
        <r>     1.9356     0.0000     0.0000     0.0000     0.0000     0.0000     0.0000     0.0000     0.0000     0.0000 </r>
        <r>     2.2764     0.0000     0.0000     0.0000     0.0000     0.0000     0.0000     0.0000     0.0000     0.0000 </r>
        <r>     2.6172     0.0000     0.0000     0.0000     0.0000     0.0000     0.0000     0.0000     0.0000     0.0000 </r>
        <r>     2.9580     0.0000     0.0000     0.0000     0.0000     0.0000     0.0000     0.0000     0.0000     0.0000 </r>
        <r>     3.2988     0.0000     0.0291     0.0291     0.0291     0.0000     0.0000     0.0000     0.0000     0.0000 </r>
        <r>     3.6396     0.0000     0.0107     0.0107     0.0107     0.0000     0.0000     0.0000     0.0000     0.0000 </r>
        <r>     3.9804     0.0000     0.0000     0.0000     0.0000     0.0000     0.0000     0.0000     0.0000     0.0000 </r>
        <r>     4.3212     0.0000     0.0000     0.0000     0.0000     0.0000     0.0000     0.0000     0.0000     0.0000 </r>
        <r>     4.6620     0.0000     0.0000     0.0000     0.0000     0.0000     0.0000     0.0000     0.0000     0.0000 </r>
        <r>     5.0028     0.0000     0.0000     0.0000     0.0000     1.2478     1.2478     0.0000     1.2478     0.0000 </r>
        <r>     5.3436     0.0046     0.0000     0.0000     0.0000     0.0000     0.0000     0.6444     0.0000     0.6444 </r>
        <r>     5.6844     0.3820     0.0000     0.0000     0.0000     0.0000     0.0000     0.8440     0.0000     0.8440 </r>
        <r>     6.0252     0.0000     0.0000     0.0000     0.0000     0.0000     0.0000     0.0000     0.0000     0.0000 </r>
        <r>     6.3660     0.0000     0.0000     0.0000     0.0000     0.0000     0.0000     0.0000     0.0000     0.0000 </r>
        <r>     6.7068     0.0000     0.0000     0.0000     0.0000     0.0000     0.0000     0.0000     0.0000     0.0000 </r>
        <r>     7.0476     0.0000     0.0000     0.0000     0.0000     0.0000     0.0000     0.0000     0.0000     0.0000 </r>
        <r>     7.3884     0.0000     0.0000     0.0000     0.0000     0.0000     0.0000     0.0000     0.0000     0.0000 </r>
        <r>     7.7292     0.0000     0.0000     0.0000     0.0000     0.0000     0.0000     0.0000     0.0000     0.0000 </r>
        <r>     8.0700     0.0000     0.0000     0.0000     0.0000     0.0000     0.0000     0.0000     0.0000     0.0000 </r>
        <r>     8.4108     0.0000     0.0000     0.0000     0.0000     0.0000     0.0000     0.0000     0.0000     0.0000 </r>
        <r>     8.7516     0.0000     0.0000     0.0000     0.0000     0.0000     0.0000     0.0000     0.0000     0.0000 </r>
        <r>     9.0924     0.0000     0.0000     0.0000     0.0000     0.0000     0.0000     0.0000     0.0000     0.0000 </r>
        <r>     9.4332     0.0000     0.0000     0.0000     0.0000     0.0000     0.0000     0.0000     0.0000     0.0000 </r>
        <r>     9.7740     0.0000     0.0000     0.0000     0.0000     0.0000     0.0000     0.0000     0.0000     0.0000 </r>
        <r>    10.1148     0.0000     0.0000     0.0000     0.0000     0.0000     0.0000     0.0000     0.0000     0.0000 </r>
        <r>    10.4556     0.0000     0.0000     0.0000     0.0000     0.0000     0.0000     0.0000     0.0000     0.0000 </r>
        <r>    10.7964     0.0000     0.0000     0.0000     0.0000     0.0000     0.0000     0.0000     0.0000     0.0000 </r>
        <r>    11.1372     0.0000     0.0000     0.0000     0.0000     0.0000     0.0000     0.0000     0.0000     0.0000 </r>
        <r>    11.4780     0.0000     0.0000     0.0000     0.0000     0.0000     0.0000     0.0000     0.0000     0.0000 </r>
        <r>    11.8188     0.0000     0.0000     0.0000     0.0000     0.0000     0.0000     0.0000     0.0000     0.0000 </r>
        <r>    12.1596     0.0000     0.0000     0.0000     0.0000     0.0000     0.0000     0.0000     0.0000     0.0000 </r>
        <r>    12.5004     0.0000     0.0000     0.0000     0.0000     0.0000     0.0000     0.0000     0.0000     0.0000 </r>
[...]
        <r>  0.0000  0.0000  0.0000  0.0000  0.0000  0.0000  0.0000  0.0000  0.0000 </r>
       </set>
       <set comment="band 44">
        <r>  0.0000  0.0000  0.0000  0.0000  0.0000  0.0000  0.0000  0.0000  0.0000 </r>
        <r>  0.0000  0.0000  0.0000  0.0000  0.0000  0.0000  0.0000  0.0000  0.0000 </r>
       </set>
       <set comment="band 45">
        <r>  0.0000  0.0000  0.0000  0.0000  0.0000  0.0000  0.0000  0.0000  0.0000 </r>
        <r>  0.0000  0.0000  0.0000  0.0000  0.0000  0.0000  0.0000  0.0000  0.0000 </r>
       </set>
       <set comment="band 46">
        <r>  0.0000  0.0000  0.0000  0.0000  0.0000  0.0000  0.0000  0.0000  0.0000 </r>
        <r>  0.0000  0.0000  0.0000  0.0000  0.0000  0.0000  0.0000  0.0000  0.0000 </r>
       </set>
       <set comment="band 47">
        <r>  0.0000  0.0000  0.0000  0.0000  0.0000  0.0000  0.0000  0.0000  0.0000 </r>
        <r>  0.0000  0.0000  0.0000  0.0000  0.0000  0.0000  0.0000  0.0000  0.0000 </r>
       </set>
       <set comment="band 48">
        <r>  0.0000  0.0000  0.0000  0.0000  0.0131  0.0126  0.0000  0.0009  0.0000 </r>
        <r>  0.0000  0.0000  0.0000  0.0000  0.1907  0.1833  0.0000  0.0130  0.0000 </r>
       </set>
       <set comment="band 49">
        <r>  0.0000  0.0000  0.0000  0.0000  0.0052  0.0013  0.0000  0.0201  0.0000 </r>
        <r>  0.0000  0.0000  0.0000  0.0000  0.0761  0.0188  0.0000  0.2920  0.0000 </r>
       </set>
       <set comment="band 50">
        <r>  0.0000  0.0000  0.0000  0.0000  0.0083  0.0127  0.0000  0.0056  0.0000 </r>
        <r>  0.0000  0.0000  0.0000  0.0000  0.1202  0.1848  0.0000  0.0819  0.0000 </r>
       </set>
       <set comment="band 51">
        <r>  0.0000  0.0005  0.0000  0.0088  0.0000  0.0000  0.0000  0.0000  0.0000 </r>
        <r>  0.0000  0.0014  0.0001  0.0227  0.0000  0.0000  0.0000  0.0000  0.0000 </r>
       </set>
       <set comment="band 52">
        <r>  0.0000  0.0081  0.0007  0.0006  0.0000  0.0000  0.0000  0.0000  0.0000 </r>
        <r>  0.0000  0.0208  0.0018  0.0015  0.0000  0.0000  0.0000  0.0000  0.0000 </r>
       </set>
       <set comment="band 53">
        <r>  0.0000  0.0007  0.0086  0.0000  0.0000  0.0000  0.0000  0.0000  0.0000 </r>
        <r>  0.0000  0.0019  0.0222  0.0000  0.0000  0.0000  0.0000  0.0000  0.0000 </r>
       </set>
       <set comment="band 54">
        <r>  0.0000  0.0000  0.0000  0.0000  0.0001  0.0000  0.0000  0.0002  0.0000 </r>
        <r>  0.0000  0.0000  0.0000  0.0000  0.0039  0.0030  0.0000  0.0116  0.0000 </r>
       </set>
       <set comment="band 55">
        <r>  0.0000  0.0000  0.0000  0.0000  0.0000  0.0002  0.0000  0.0000  0.0000 </r>
        <r>  0.0000  0.0000  0.0000  0.0000  0.0008  0.0155  0.0000  0.0021  0.0000 </r>
       </set>
       <set comment="band 56">
        <r>  0.0000  0.0000  0.0000  0.0000  0.0002  0.0000  0.0000  0.0001  0.0000 </r>
        <r>  0.0000  0.0000  0.0000  0.0000  0.0137  0.0000  0.0000  0.0047  0.0000 </r>
       </set>
       <set comment="band 57">
        <r>  0.0000  0.0000  0.0000  0.0000  0.0000  0.0000  0.0000  0.0000  0.0000 </r>
        <r>  0.0000  0.0000  0.0000  0.0000  0.0000  0.0000  0.0000  0.0000  0.0000 </r>
       </set>
       <set comment="band 58">
        <r>  0.0000  0.0000  0.0000  0.0000  0.0000  0.0000  0.0000  0.0000  0.0000 </r>
        <r>  0.0000  0.0000  0.0000  0.0000  0.0000  0.0000  0.0000  0.0000  0.0000 </r>
       </set>
       <set comment="band 59">
        <r>  0.0267  0.0000  0.0000  0.0000  0.0000  0.0000  0.0000  0.0000  0.0000 </r>
        <r>  0.0556  0.0000  0.0000  0.0000  0.0000  0.0000  0.0000  0.0000  0.0000 </r>
       </set>
       <set comment="band 60">
        <r>  0.0000  0.0000  0.0000  0.0000  0.0000  0.0000  0.0029  0.0000  0.2035 </r>
        <r>  0.0000  0.0000  0.0000  0.0000  0.0000  0.0000  0.0146  0.0000  1.0298 </r>
       </set>
       <set comment="band 61">
        <r>  0.0000  0.0000  0.0000  0.0000  0.0000  0.0000  0.2035  0.0000  0.0029 </r>
        <r>  0.0000  0.0000  0.0000  0.0000  0.0000  0.0000  1.0298  0.0000  0.0146 </r>
       </set>
       <set comment="band 62">
        <r>  0.0000  0.0439  0.0993  0.0043  0.0000  0.0000  0.0000  0.0000  0.0000 </r>
        <r>  0.0000  0.0213  0.0481  0.0021  0.0000  0.0000  0.0000  0.0000  0.0000 </r>
       </set>
       <set comment="band 63">
        <r>  0.0000  0.0271  0.0014  0.1190  0.0000  0.0000  0.0000  0.0000  0.0000 </r>
        <r>  0.0000  0.0131  0.0007  0.0576  0.0000  0.0000  0.0000  0.0000  0.0000 </r>
       </set>
       <set comment="band 64">
        <r>  0.0000  0.0765  0.0467  0.0242  0.0000  0.0000  0.0000  0.0000  0.0000 </r>
        <r>  0.0000  0.0371  0.0226  0.0117  0.0000  0.0000  0.0000  0.0000  0.0000 </r>
       </set>
       <set comment="band 65">
        <r>  1.1046  0.0000  0.0000  0.0000  0.0000  0.0000  0.0000  0.0000  0.0000 </r>
        <r>  0.0808  0.0000  0.0000  0.0000  0.0000  0.0000  0.0000  0.0000  0.0000 </r>
       </set>
       <set comment="band 66">
        <r>  0.0000  0.0000  0.0000  0.0000  0.0203  0.1198  0.0000  0.0156  0.0000 </r>
        <r>  0.0000  0.0000  0.0000  0.0000  0.0954  0.5646  0.0000  0.0735  0.0000 </r>
       </set>
       <set comment="band 67">
        <r>  0.0000  0.0000  0.0000  0.0000  0.0003  0.0197  0.0000  0.1357  0.0000 </r>
        <r>  0.0000  0.0000  0.0000  0.0000  0.0015  0.0928  0.0000  0.6391  0.0000 </r>
       </set>
       <set comment="band 68">
        <r>  0.0000  0.0000  0.0000  0.0000  0.1351  0.0162  0.0000  0.0044  0.0000 </r>
        <r>  0.0000  0.0000  0.0000  0.0000  0.6365  0.0761  0.0000  0.0208  0.0000 </r>
       </set>
       <set comment="band 69">
        <r>  0.0000  0.0000  0.0000  0.0000  0.0000  0.0000  0.0000  0.0000  0.0000 </r>
        <r>  0.0000  0.0000  0.0000  0.0000  0.0000  0.0000  0.0000  0.0000  0.0000 </r>
       </set>
       <set comment="band 70">
        <r>  0.0000  0.0000  0.0000  0.0000  0.0000  0.0000  0.0000  0.0000  0.0000 </r>
        <r>  0.0000  0.0000  0.0000  0.0000  0.0000  0.0000  0.0000  0.0000  0.0000 </r>
       </set>
       <set comment="band 71">
        <r>  0.0000  0.0000  0.0000  0.0000  0.0000  0.0000  0.0000  0.0000  0.0000 </r>
        <r>  0.0000  0.0000  0.0000  0.0000  0.0000  0.0000  0.0000  0.0000  0.0000 </r>
       </set>
       <set comment="band 72">
        <r>  0.0000  0.0000  0.0000  0.0000  0.1407  0.1206  0.0000  0.1281  0.0000 </r>
        <r>  0.0000  0.0000  0.0000  0.0000  0.1620  0.1388  0.0000  0.1475  0.0000 </r>
       </set>
       <set comment="band 73">
        <r>  0.0000  0.0000  0.0000  0.0000  0.0057  0.1625  0.0000  0.2212  0.0000 </r>
        <r>  0.0000  0.0000  0.0000  0.0000  0.0066  0.1871  0.0000  0.2546  0.0000 </r>
       </set>
       <set comment="band 74">
        <r>  0.0000  0.0000  0.0000  0.0000  0.2430  0.1063  0.0000  0.0401  0.0000 </r>
        <r>  0.0000  0.0000  0.0000  0.0000  0.2797  0.1224  0.0000  0.0462  0.0000 </r>
       </set>
       <set comment="band 75">
        <r>  0.0000  0.0000  0.0000  0.0000  0.0000  0.0000  0.0507  0.0000  0.1234 </r>
        <r>  0.0000  0.0000  0.0000  0.0000  0.0000  0.0000  0.0813  0.0000  0.1977 </r>
       </set>
       <set comment="band 76">
        <r>  0.0000  0.0000  0.0000  0.0000  0.0000  0.0000  0.1234  0.0000  0.0507 </r>
        <r>  0.0000  0.0000  0.0000  0.0000  0.0000  0.0000  0.1977  0.0000  0.0813 </r>
       </set>
       <set comment="band 77">
        <r>  0.3033  0.0000  0.0000  0.0000  0.0000  0.0000  0.0000  0.0000  0.0000 </r>
        <r>  0.1727  0.0000  0.0000  0.0000  0.0000  0.0000  0.0000  0.0000  0.0000 </r>
       </set>
       <set comment="band 78">
        <r>  0.0000  0.0652  0.1537  0.0321  0.0000  0.0000  0.0000  0.0000  0.0000 </r>
        <r>  0.0000  0.0097  0.0228  0.0048  0.0000  0.0000  0.0000  0.0000  0.0000 </r>
       </set>
       <set comment="band 79">
        <r>  0.0000  0.0116  0.0675  0.1719  0.0000  0.0000  0.0000  0.0000  0.0000 </r>
        <r>  0.0000  0.0017  0.0100  0.0255  0.0000  0.0000  0.0000  0.0000  0.0000 </r>
       </set>
       <set comment="band 80">
        <r>  0.0000  0.1742  0.0298  0.0471  0.0000  0.0000  0.0000  0.0000  0.0000 </r>
        <r>  0.0000  0.0258  0.0044  0.0070  0.0000  0.0000  0.0000  0.0000  0.0000 </r>
       </set>
       <set comment="band 81">
        <r>  0.0000  0.0000  0.0000  0.0000  0.0000  0.0000  0.0000  0.0000  0.0000 </r>
        <r>  0.0000  0.0000  0.0000  0.0000  0.0000  0.0000  0.0000  0.0000  0.0000 </r>
       </set>
       <set comment="band 82">
        <r>  0.0000  0.0000  0.0000  0.0000  0.0000  0.0000  0.0000  0.0000  0.0000 </r>
        <r>  0.0000  0.0000  0.0000  0.0000  0.0000  0.0000  0.0000  0.0000  0.0000 </r>
       </set>
       <set comment="band 83">
        <r>  0.0000  0.0000  0.0000  0.0000  0.0000  0.0000  0.0000  0.0000  0.0000 </r>
        <r>  0.0000  0.0000  0.0000  0.0000  0.0000  0.0000  0.0000  0.0000  0.0000 </r>
       </set>
       <set comment="band 84">
        <r>  0.0000  0.0000  0.0000  0.0000  0.0000  0.0000  0.0000  0.0000  0.0000 </r>
        <r>  0.0000  0.0000  0.0000  0.0000  0.0000  0.0000  0.0000  0.0000  0.0000 </r>
       </set>
       <set comment="band 85">
        <r>  0.0000  0.0000  0.0000  0.0000  0.0000  0.0000  0.0072  0.0000  0.0484 </r>
        <r>  0.0000  0.0000  0.0000  0.0000  0.0000  0.0000  0.0365  0.0000  0.2445 </r>
       </set>
       <set comment="band 86">
        <r>  0.0000  0.0000  0.0000  0.0000  0.0000  0.0000  0.0484  0.0000  0.0072 </r>
        <r>  0.0000  0.0000  0.0000  0.0000  0.0000  0.0000  0.2445  0.0000  0.0365 </r>
       </set>
       <set comment="band 87">
        <r>  0.0000  0.0225  0.0314  0.0011  0.0000  0.0000  0.0000  0.0000  0.0000 </r>
        <r>  0.0000  0.0142  0.0199  0.0007  0.0000  0.0000  0.0000  0.0000  0.0000 </r>
       </set>
       <set comment="band 88">
        <r>  0.0000  0.0011  0.0002  0.0537  0.0000  0.0000  0.0000  0.0000  0.0000 </r>
        <r>  0.0000  0.0007  0.0001  0.0340  0.0000  0.0000  0.0000  0.0000  0.0000 </r>
       </set>
       <set comment="band 89">
        <r>  0.0000  0.0314  0.0234  0.0002  0.0000  0.0000  0.0000  0.0000  0.0000 </r>
        <r>  0.0000  0.0199  0.0148  0.0002  0.0000  0.0000  0.0000  0.0000  0.0000 </r>
       </set>
       <set comment="band 90">
        <r>  0.0000  0.0000  0.0000  0.0000  0.0006  0.0040  0.0000  0.0119  0.0000 </r>
        <r>  0.0000  0.0000  0.0000  0.0000  0.0000  0.0000  0.0000  0.0001  0.0000 </r>
       </set>
       <set comment="band 91">
        <r>  0.0000  0.0000  0.0000  0.0000  0.0022  0.0116  0.0000  0.0027  0.0000 </r>
        <r>  0.0000  0.0000  0.0000  0.0000  0.0000  0.0001  0.0000  0.0000  0.0000 </r>
       </set>
       <set comment="band 92">
        <r>  0.0000  0.0000  0.0000  0.0000  0.0137  0.0009  0.0000  0.0019  0.0000 </r>
        <r>  0.0000  0.0000  0.0000  0.0000  0.0002  0.0000  0.0000  0.0000  0.0000 </r>
       </set>
       <set comment="band 93">
        <r>  0.0000  0.0000  0.0000  0.0000  0.0000  0.0000  0.0000  0.0000  0.0000 </r>
        <r>  0.0000  0.0000  0.0000  0.0000  0.0000  0.0000  0.0000  0.0000  0.0000 </r>
       </set>
       <set comment="band 94">
        <r>  0.0000  0.0000  0.0000  0.0000  0.0000  0.0000  0.0000  0.0000  0.0000 </r>
        <r>  0.0000  0.0000  0.0000  0.0000  0.0000  0.0000  0.0000  0.0000  0.0000 </r>
       </set>
       <set comment="band 95">
        <r>  0.0000  0.0000  0.0000  0.0000  0.0000  0.0000  0.0000  0.0000  0.0000 </r>
        <r>  0.0000  0.0000  0.0000  0.0000  0.0000  0.0000  0.0000  0.0000  0.0000 </r>
       </set>
       <set comment="band 96">
        <r>  0.0000  0.0059  0.0001  0.0038  0.0000  0.0000  0.0000  0.0000  0.0000 </r>
        <r>  0.0000  0.0015  0.0000  0.0010  0.0000  0.0000  0.0000  0.0000  0.0000 </r>
       </set>
       <set comment="band 97">
        <r>  0.0000  0.0001  0.0090  0.0007  0.0000  0.0000  0.0000  0.0000  0.0000 </r>
        <r>  0.0000  0.0000  0.0023  0.0002  0.0000  0.0000  0.0000  0.0000  0.0000 </r>
       </set>
       <set comment="band 98">
        <r>  0.0000  0.0037  0.0008  0.0053  0.0000  0.0000  0.0000  0.0000  0.0000 </r>
        <r>  0.0000  0.0009  0.0002  0.0013  0.0000  0.0000  0.0000  0.0000  0.0000 </r>
       </set>
       <set comment="band 99">
        <r>  0.0000  0.0000  0.0000  0.0000  0.0000  0.0000  0.0000  0.0000  0.0000 </r>
        <r>  0.0000  0.0000  0.0000  0.0000  0.0000  0.0000  0.0000  0.0000  0.0000 </r>
       </set>
       <set comment="band 100">
        <r>  0.0000  0.0000  0.0000  0.0000  0.0000  0.0000  0.0000  0.0000  0.0000 </r>
        <r>  0.0000  0.0000  0.0000  0.0000  0.0000  0.0000  0.0000  0.0000  0.0000 </r>
       </set>
       <set comment="band 101">
        <r>  0.0000  0.0000  0.0000  0.0000  0.0000  0.0000  0.0000  0.0000  0.0000 </r>
        <r>  0.0000  0.0000  0.0000  0.0000  0.0000  0.0000  0.0000  0.0000  0.0000 </r>
       </set>
       <set comment="band 102">
        <r>  0.0000  0.0000  0.0000  0.0000  0.0000  0.0000  0.0000  0.0000  0.0000 </r>
        <r>  0.0000  0.0000  0.0000  0.0000  0.0000  0.0000  0.0000  0.0000  0.0000 </r>
       </set>
       <set comment="band 103">
        <r>  0.0000  0.0000  0.0000  0.0000  0.0000  0.0000  0.0000  0.0000  0.0000 </r>
        <r>  0.0000  0.0000  0.0000  0.0000  0.0000  0.0000  0.0000  0.0000  0.0000 </r>
       </set>
       <set comment="band 104">
        <r>  0.0000  0.0184  0.0343  0.0575  0.0000  0.0000  0.0000  0.0000  0.0000 </r>
        <r>  0.0000  0.0228  0.0426  0.0714  0.0000  0.0000  0.0000  0.0000  0.0000 </r>
       </set>
       <set comment="band 105">
        <r>  0.0000  0.0917  0.0077  0.0107  0.0000  0.0000  0.0000  0.0000  0.0000 </r>
        <r>  0.0000  0.1139  0.0095  0.0133  0.0000  0.0000  0.0000  0.0000  0.0000 </r>
       </set>
       <set comment="band 106">
        <r>  0.0000  0.0000  0.0682  0.0419  0.0000  0.0000  0.0000  0.0000  0.0000 </r>
        <r>  0.0000  0.0000  0.0847  0.0521  0.0000  0.0000  0.0000  0.0000  0.0000 </r>
       </set>
       <set comment="band 107">
        <r>  0.0000  0.0000  0.0000  0.0000  0.0000  0.0000  0.0011  0.0000  0.0110 </r>
        <r>  0.0000  0.0000  0.0000  0.0000  0.0000  0.0000  0.0000  0.0000  0.0000 </r>
       </set>
       <set comment="band 108">
        <r>  0.0000  0.0000  0.0000  0.0000  0.0000  0.0000  0.0110  0.0000  0.0011 </r>
        <r>  0.0000  0.0000  0.0000  0.0000  0.0000  0.0000  0.0000  0.0000  0.0000 </r>
       </set>
       <set comment="band 109">
        <r>  0.0000  0.0000  0.0000  0.0000  0.0000  0.0000  0.0000  0.0000  0.0000 </r>
        <r>  0.0000  0.0000  0.0000  0.0000  0.0000  0.0000  0.0000  0.0000  0.0000 </r>
       </set>
       <set comment="band 110">
        <r>  0.0000  0.0000  0.0000  0.0000  0.0000  0.0000  0.0000  0.0000  0.0000 </r>
        <r>  0.0000  0.0000  0.0000  0.0000  0.0000  0.0000  0.0000  0.0000  0.0000 </r>
       </set>
       <set comment="band 111">
        <r>  0.0000  0.0000  0.0000  0.0000  0.0000  0.0000  0.0000  0.0000  0.0000 </r>
        <r>  0.0000  0.0000  0.0000  0.0000  0.0000  0.0000  0.0000  0.0000  0.0000 </r>
       </set>
       <set comment="band 112">
        <r>  0.0677  0.0000  0.0000  0.0000  0.0000  0.0000  0.0000  0.0000  0.0000 </r>
        <r>  2.1377  0.0000  0.0000  0.0000  0.0000  0.0000  0.0000  0.0000  0.0000 </r>
       </set>
       <set comment="band 113">
        <r>  0.0000  0.0000  0.0000  0.0000  0.0000  0.0000  0.0000  0.0000  0.0000 </r>
        <r>  0.0000  0.0000  0.0000  0.0000  0.0000  0.0000  0.0000  0.0000  0.0000 </r>
       </set>
       <set comment="band 114">
        <r>  0.0000  0.0000  0.0000  0.0000  0.0000  0.0000  0.0000  0.0000  0.0000 </r>
        <r>  0.0000  0.0000  0.0000  0.0000  0.0000  0.0000  0.0000  0.0000  0.0000 </r>
       </set>
       <set comment="band 115">
        <r>  0.0000  0.0000  0.0000  0.0000  0.0000  0.0000  0.1684  0.0000  0.3048 </r>
        <r>  0.0000  0.0000  0.0000  0.0000  0.0000  0.0000  0.1119  0.0000  0.2025 </r>
       </set>
       <set comment="band 116">
        <r>  0.0000  0.0000  0.0000  0.0000  0.0000  0.0000  0.3048  0.0000  0.1684 </r>
        <r>  0.0000  0.0000  0.0000  0.0000  0.0000  0.0000  0.2025  0.0000  0.1119 </r>
       </set>
       <set comment="band 117">
        <r>  0.0000  0.0000  0.0000  0.0000  0.0644  0.0043  0.0000  0.0149  0.0000 </r>
        <r>  0.0000  0.0000  0.0000  0.0000  0.0781  0.0052  0.0000  0.0181  0.0000 </r>
       </set>
       <set comment="band 118">
        <r>  0.0000  0.0000  0.0000  0.0000  0.0072  0.0756  0.0000  0.0008  0.0000 </r>
        <r>  0.0000  0.0000  0.0000  0.0000  0.0087  0.0917  0.0000  0.0010  0.0000 </r>
       </set>
       <set comment="band 119">
        <r>  0.0000  0.0000  0.0000  0.0000  0.0120  0.0037  0.0000  0.0678  0.0000 </r>
        <r>  0.0000  0.0000  0.0000  0.0000  0.0146  0.0045  0.0000  0.0823  0.0000 </r>
       </set>
       <set comment="band 120">
        <r>  0.0000  0.0035  0.0292  0.1213  0.0000  0.0000  0.0000  0.0000  0.0000 </r>
        <r>  0.0000  0.0005  0.0043  0.0177  0.0000  0.0000  0.0000  0.0000  0.0000 </r>
       </set>
       <set comment="band 121">
        <r>  0.0000  0.1505  0.0011  0.0025  0.0000  0.0000  0.0000  0.0000  0.0000 </r>
        <r>  0.0000  0.0220  0.0002  0.0004  0.0000  0.0000  0.0000  0.0000  0.0000 </r>
       </set>
       <set comment="band 122">
        <r>  0.0000  0.0001  0.1238  0.0302  0.0000  0.0000  0.0000  0.0000  0.0000 </r>
        <r>  0.0000  0.0000  0.0181  0.0044  0.0000  0.0000  0.0000  0.0000  0.0000 </r>
       </set>
       <set comment="band 123">
        <r>  0.0641  0.0000  0.0000  0.0000  0.0000  0.0000  0.0000  0.0000  0.0000 </r>
        <r>  3.0066  0.0000  0.0000  0.0000  0.0000  0.0000  0.0000  0.0000  0.0000 </r>
       </set>
       <set comment="band 124">
        <r>  0.0136  0.0000  0.0000  0.0000  0.0000  0.0000  0.0000  0.0000  0.0000 </r>
        <r>  1.5629  0.0000  0.0000  0.0000  0.0000  0.0000  0.0000  0.0000  0.0000 </r>
       </set>
       <set comment="band 125">
        <r>  0.0000  0.0000  0.0000  0.0000  0.0000  0.0000  0.0000  0.0000  0.0000 </r>
        <r>  0.0000  0.0000  0.0000  0.0000  0.0000  0.0000  0.0000  0.0000  0.0000 </r>
       </set>
       <set comment="band 126">
        <r>  0.0000  0.0000  0.0000  0.0000  0.0000  0.0000  0.0000  0.0000  0.0000 </r>
        <r>  0.0000  0.0000  0.0000  0.0000  0.0000  0.0000  0.0000  0.0000  0.0000 </r>
       </set>
       <set comment="band 127">
        <r>  0.0000  0.0000  0.0000  0.0000  0.0018  0.0010  0.0000  0.0011  0.0000 </r>
        <r>  0.0000  0.0000  0.0000  0.0000  0.0107  0.0061  0.0000  0.0064  0.0000 </r>
       </set>
       <set comment="band 128">
        <r>  0.0000  0.0000  0.0000  0.0000  0.0003  0.0019  0.0000  0.0018  0.0000 </r>
        <r>  0.0000  0.0000  0.0000  0.0000  0.0019  0.0109  0.0000  0.0104  0.0000 </r>
       </set>
      </set>
     </set>
    </set>
   </array>
  </projected>
 </calculation>
 <structure name="finalpos" >
  <crystal>
   <varray name="basis" >
    <v>       0.00000000       3.54487900       3.54487900 </v>
    <v>       3.54487900       0.00000000       3.54487900 </v>
    <v>       3.54487900       3.54487900       0.00000000 </v>
   </varray>
   <i name="volume">     89.09108390 </i>
   <varray name="rec_basis" >
    <v>      -0.14104854       0.14104854       0.14104854 </v>
    <v>       0.14104854      -0.14104854       0.14104854 </v>
    <v>       0.14104854       0.14104854      -0.14104854 </v>
   </varray>
  </crystal>
  <varray name="positions" >
   <v>       0.00000000       0.00000000       0.00000000 </v>
   <v>       0.50000000       0.50000000       0.50000000 </v>
  </varray>
 </structure>
</modeling>
