unknown system                          
           1
     0.000000    3.544879    3.544879
     3.544879    0.000000    3.544879
     3.544879    3.544879    0.000000
   Ba   Te
   1   1
Direct configuration=     1
   0.00000000  0.00000000  0.00000000
   0.50000000  0.50000000  0.50000000
