 vasp.6.2.1 16May21 (build Oct 27 2021 18:14:32) complex                        
  
 executed on             LinuxIFC date 2021.11.08  17:28:10
 running on    1 total cores
 distrk:  each k-point on    1 cores,    1 groups
 distr:  one band on NCORE=   1 cores,    1 groups


--------------------------------------------------------------------------------------------------------


 INCAR:
   ALGO = Normal
   EDIFF = 1e-07
   EDIFFG = -0.001
   ENAUG = 1360.0
   ENCUT = 700.0
   IBRION = 2
   ISIF = 3
   ISMEAR = -5
   ISPIN = 2
   KSPACING = 0.2925287784072645
   LAECHG = False
   LASPH = True
   LCHARG = True
   LELF = True
   LMIXTAU = True
   LORBIT = 11
   LREAL = False
   LVTOT = True
   LWAVE = False
   MAGMOM = 2*-0.0
   NELM = 200
   NSW = 1
   PREC = Accurate
   SIGMA = 0.05

 POTCAR:    PAW_PBE Si 05Jan2001                  
 WARNING: For LVTOT=.TRUE., VASP.5.x writes the TOTAL local potential to the
     file LOCPOT. If you want only the Hartree contributions, use LVHAR=.TRUE.
     instead. 

 POTCAR:    PAW_PBE Si 05Jan2001                  
   VRHFIN =Si: s2p2                                                                                 
   LEXCH  = PE                                                                                      
   EATOM  =   103.0669 eV,    7.5752 Ry                                                             
                                                                                                    
   TITEL  = PAW_PBE Si 05Jan2001                                                                    
   LULTRA =        F    use ultrasoft PP ?                                                          
   IUNSCR =        1    unscreen: 0-lin 1-nonlin 2-no                                               
   RPACOR =    1.500    partial core radius                                                         
   POMASS =   28.085; ZVAL   =    4.000    mass and valenz                                          
   RCORE  =    1.900    outmost cutoff radius                                                       
   RWIGS  =    2.480; RWIGS  =    1.312    wigner-seitz radius (au A)                               
   ENMAX  =  245.345; ENMIN  =  184.009 eV                                                          
   ICORE  =        2    local potential                                                             
   LCOR   =        T    correct aug charges                                                         
   LPAW   =        T    paw PP                                                                      
   EAUG   =  322.069                                                                                
   DEXC   =    0.000                                                                                
   RMAX   =    1.950    core radius for proj-oper                                                   
   RAUG   =    1.300    factor for augmentation sphere                                              
   RDEP   =    1.993    radius for radial grids                                                     
   RDEPT  =    1.837    core radius for aug-charge                                                  
                                                                                                    
   Atomic configuration                                                                             
    6 entries                                                                                       
     n  l   j            E        occ.                                                              
     1  0  0.50     -1785.8828   2.0000                                                             
     2  0  0.50      -139.4969   2.0000                                                             
     2  1  1.50       -95.5546   6.0000                                                             
     3  0  0.50       -10.8127   2.0000                                                             
     3  1  0.50        -4.0811   2.0000                                                             
     3  2  1.50        -4.0817   0.0000                                                             
   Description                                                                                      
     l       E           TYP  RCUT    TYP  RCUT                                                     
     0    -10.8127223     23  1.900                                                                 
     0     -7.6451159     23  1.900                                                                 
     1     -4.0811372     23  1.900                                                                 
     1      2.4879257     23  1.900                                                                 
     2     -4.0817478      7  1.900                                                                 
  local pseudopotential read in
  partial core-charges read in
  partial kinetic energy density read in
  atomic valenz-charges read in
  non local Contribution for L=           0  read in
    real space projection operators read in
  non local Contribution for L=           0  read in
    real space projection operators read in
  non local Contribution for L=           1  read in
    real space projection operators read in
  non local Contribution for L=           1  read in
    real space projection operators read in
    PAW grid and wavefunctions read in
 
   number of l-projection  operators is LMAX  =           4
   number of lm-projection operators is LMMAX =           8
 
  PAW_PBE Si 05Jan2001                  :
 energy of atom  1       EATOM= -103.0669
 kinetic energy error for atom=    0.0003 (will be added to EATOM!!)
 
 
 POSCAR: Si2
  positions in direct lattice
  No initial velocities read in
 exchange correlation table for  LEXCH =        8
   RHO(1)=    0.500       N(1)  =     2000
   RHO(2)=  100.500       N(2)  =     4000
 


--------------------------------------------------------------------------------------------------------


 ion  position               nearest neighbor table
   1  0.750  0.750  0.750-   2 2.38   2 2.38   2 2.38   2 2.38
   2  0.500  0.500  0.500-   1 2.38   1 2.38   1 2.38   1 2.38
 
  LATTYP: Found a body centered tetragonal cell.
 ALAT       =     3.8930145676
 C/A-ratio  =     1.3999998986
  
  Lattice vectors:
  
 A1 = (  -2.7251100000,   0.0000000000,  -2.7527770000)
 A2 = (  -2.7251100000,   0.0000000000,   2.7527770000)
 A3 = (   2.7251100000,   2.7527770000,   0.0000000000)


Analysis of symmetry for initial positions (statically):
=====================================================================
 Subroutine PRICEL returns:
 Original cell was already a primitive cell.
 

 Routine SETGRP: Setting up the symmetry group for a 
 body centered tetragonal supercell.


 Subroutine GETGRP returns: Found 16 space group operations
 (whereof  8 operations were pure point group operations)
 out of a pool of 16 trial point group operations.


The static configuration has the point symmetry D_2d.
 The point group associated with its full space group is D_4h.


Analysis of symmetry for dynamics (positions and initial velocities):
=====================================================================
 Subroutine PRICEL returns:
 Original cell was already a primitive cell.
 

 Routine SETGRP: Setting up the symmetry group for a 
 body centered tetragonal supercell.


 Subroutine GETGRP returns: Found 16 space group operations
 (whereof  8 operations were pure point group operations)
 out of a pool of 16 trial point group operations.


The dynamic configuration has the point symmetry D_2d.
 The point group associated with its full space group is D_4h.


Analysis of structural, dynamic, and magnetic symmetry:
=====================================================================
 Subroutine PRICEL returns:
 Original cell was already a primitive cell.
 

 Routine SETGRP: Setting up the symmetry group for a 
 body centered tetragonal supercell.


 Subroutine GETGRP returns: Found 16 space group operations
 (whereof  8 operations were pure point group operations)
 out of a pool of 16 trial point group operations.


The overall configuration has the point symmetry D_2d.
 The point group associated with its full space group is D_4h.


 Subroutine INISYM returns: Found 16 space group operations
 (whereof  8 operations are pure point group operations),
 and found     1 'primitive' translations


----------------------------------------------------------------------------------------

                                     Primitive cell                                     

  volume of cell :      41.3006

  direct lattice vectors                    reciprocal lattice vectors
     0.000000000  2.752777000  2.752777000    -0.183478832  0.181634764  0.181634764
     2.725110000  0.000000000  2.752777000     0.183478832 -0.181634764  0.181634764
     2.725110000  2.752777000  0.000000000     0.183478832  0.181634764 -0.181634764

  length of vectors
     3.893014568  3.873500448  3.873500448     0.315668903  0.315668903  0.315668903

  position of ions in fractional coordinates (direct lattice)
     0.750000000  0.750000000  0.750000000
     0.500000000  0.500000000  0.500000000

  ion indices of the primitive-cell ions
   primitive index   ion index
                 1           1
                 2           2

----------------------------------------------------------------------------------------

 
 
 KPOINTS: pymatgen with grid density = 100 / numbe

Automatic generation of k-mesh.
 Grid dimensions read from file:
 generate k-points for:    3    3    3

 Generating k-lattice:

  Cartesian coordinates                     Fractional coordinates (reciprocal lattice)
    -0.061159611  0.060544921  0.060544921     0.333333333 -0.000000000 -0.000000000
     0.061159611 -0.060544921  0.060544921     0.000000000  0.333333333  0.000000000
     0.061159611  0.060544921 -0.060544921    -0.000000000  0.000000000  0.333333333

  Length of vectors
     0.105222968  0.105222968  0.105222968

  Shift w.r.t. Gamma in fractional coordinates (k-lattice)
     0.000000000  0.000000000  0.000000000

 TETIRR: Found     17 inequivalent tetrahedra from      162
 
 Subroutine IBZKPT returns following result:
 ===========================================
 
 Found      6 irreducible k-points:
 
 Following reciprocal coordinates:
            Coordinates               Weight
  0.000000  0.000000  0.000000      1.000000
  0.333333  0.000000  0.000000      8.000000
  0.333333  0.333333 -0.000000      4.000000
 -0.333333  0.333333  0.000000      8.000000
 -0.000000  0.333333  0.333333      2.000000
 -0.333333  0.333333  0.333333      4.000000
 
 Following cartesian coordinates:
            Coordinates               Weight
  0.000000  0.000000  0.000000      1.000000
 -0.061160  0.060545  0.060545      8.000000
 -0.000000 -0.000000  0.121090      4.000000
  0.122319 -0.121090 -0.000000      8.000000
  0.122319  0.000000 -0.000000      2.000000
  0.183479 -0.060545 -0.060545      4.000000
 


--------------------------------------------------------------------------------------------------------




 Dimension of arrays:
   k-points           NKPTS =      6   k-points in BZ     NKDIM =      6   number of bands    NBANDS=      8
   number of dos      NEDOS =    301   number of ions     NIONS =      2
   non local maximal  LDIM  =      4   non local SUM 2l+1 LMDIM =      8
   total plane-waves  NPLWV =  46656
   max r-space proj   IRMAX =      1   max aug-charges    IRDMAX=  37966
   dimension x,y,z NGX =    36 NGY =   36 NGZ =   36
   dimension x,y,z NGXF=    72 NGYF=   72 NGZF=   72
   support grid    NGXF=    72 NGYF=   72 NGZF=   72
   ions per type =               2
   NGX,Y,Z   is equivalent  to a cutoff of  15.37, 15.45, 15.45 a.u.
   NGXF,Y,Z  is equivalent  to a cutoff of  30.75, 30.90, 30.90 a.u.

 SYSTEM =  unknown system                          
 POSCAR =  Si2                                     

 Startparameter for this run:
   NWRITE =      2    write-flag & timer
   PREC   = accura    normal or accurate (medium, high low for compatibility)
   ISTART =      0    job   : 0-new  1-cont  2-samecut
   ICHARG =      2    charge: 1-file 2-atom 10-const
   ISPIN  =      2    spin polarized calculation?
   LNONCOLLINEAR =      F non collinear calculations
   LSORBIT =      F    spin-orbit coupling
   INIWAV =      1    electr: 0-lowe 1-rand  2-diag
   LASPH  =      T    aspherical Exc in radial PAW
 Electronic Relaxation 1
   ENCUT  =  700.0 eV  51.45 Ry    7.17 a.u.   8.40  8.36  8.36*2*pi/ulx,y,z
   ENINI  =  700.0     initial cutoff
   ENAUG  = 1360.0 eV  augmentation charge cutoff
   NELM   =    200;   NELMIN=  2; NELMDL= -5     # of ELM steps 
   EDIFF  = 0.1E-06   stopping-criterion for ELM
   LREAL  =      F    real-space projection
   NLSPLINE    = F    spline interpolate recip. space projectors
   LCOMPAT=      F    compatible to vasp.4.4
   GGA_COMPAT  = T    GGA compatible to vasp.4.4-vasp.4.6
   LMAXPAW     = -100 max onsite density
   LMAXMIX     =    2 max onsite mixed and CHGCAR
   VOSKOWN=      0    Vosko Wilk Nusair interpolation
   ROPT   =    0.00000
 Ionic relaxation
   EDIFFG = -.1E-02   stopping-criterion for IOM
   NSW    =      1    number of steps for IOM
   NBLOCK =      1;   KBLOCK =      1    inner block; outer block 
   IBRION =      2    ionic relax: 0-MD 1-quasi-New 2-CG
   NFREE  =      1    steps in history (QN), initial steepest desc. (CG)
   ISIF   =      3    stress and relaxation
   IWAVPR =     11    prediction:  0-non 1-charg 2-wave 3-comb
   ISYM   =      2    0-nonsym 1-usesym 2-fastsym
   LCORR  =      T    Harris-Foulkes like correction to forces

   POTIM  = 0.5000    time-step for ionic-motion
   TEIN   =    0.0    initial temperature
   TEBEG  =    0.0;   TEEND  =   0.0 temperature during run
   SMASS  =  -3.00    Nose mass-parameter (am)
   estimated Nose-frequenzy (Omega)   =  0.10E-29 period in steps = 0.13E+47 mass=  -0.346E-27a.u.
   SCALEE = 1.0000    scale energy and forces
   NPACO  =    256;   APACO  = 16.0  distance and # of slots for P.C.
   PSTRESS=    0.0 pullay stress

  Mass of Ions in am
   POMASS =  28.09
  Ionic Valenz
   ZVAL   =   4.00
  Atomic Wigner-Seitz radii
   RWIGS  =  -1.00
  virtual crystal weights 
   VCA    =   1.00
   NELECT =       8.0000    total number of electrons
   NUPDOWN=      -1.0000    fix difference up-down

 DOS related values:
   EMIN   =  10.00;   EMAX   =-10.00  energy-range for DOS
   EFERMI =   0.00
   ISMEAR =    -5;   SIGMA  =   0.05  broadening in eV -4-tet -1-fermi 0-gaus

 Electronic relaxation 2 (details)
   IALGO  =     38    algorithm
   LDIAG  =      T    sub-space diagonalisation (order eigenvalues)
   LSUBROT=      F    optimize rotation matrix (better conditioning)
   TURBO    =      0    0=normal 1=particle mesh
   IRESTART =      0    0=no restart 2=restart with 2 vectors
   NREBOOT  =      0    no. of reboots
   NMIN     =      0    reboot dimension
   EREF     =   0.00    reference energy to select bands
   IMIX   =      4    mixing-type and parameters
     AMIX     =   0.40;   BMIX     =  1.00
     AMIX_MAG =   1.60;   BMIX_MAG =  1.00
     AMIN     =   0.10
     WC   =   100.;   INIMIX=   1;  MIXPRE=   1;  MAXMIX= -45

 Intra band minimization:
   WEIMIN = 0.0010     energy-eigenvalue tresh-hold
   EBREAK =  0.31E-08  absolut break condition
   DEPER  =   0.30     relativ break condition  

   TIME   =   0.40     timestep for ELM

  volume/ion in A,a.u.               =      20.65       139.36
  Fermi-wavevector in a.u.,A,eV,Ry     =   0.947224  1.789994 12.207606  0.897234
  Thomas-Fermi vector in A             =   2.075297
 
 Write flags
   LWAVE        =      F    write WAVECAR
   LDOWNSAMPLE  =      F    k-point downsampling of WAVECAR
   LCHARG       =      T    write CHGCAR
   LVTOT        =      T    write LOCPOT, total local potential
   LVHAR        =      F    write LOCPOT, Hartree potential only
   LELF         =      T    write electronic localiz. function (ELF)
   LORBIT       =     11    0 simple, 1 ext, 2 COOP (PROOUT), +10 PAW based schemes


 Dipole corrections
   LMONO  =      F    monopole corrections only (constant potential shift)
   LDIPOL =      F    correct potential (dipole corrections)
   IDIPOL =      0    1-x, 2-y, 3-z, 4-all directions 
   EPSILON=  1.0000000 bulk dielectric constant

 Exchange correlation treatment:
   GGA     =    --    GGA type
   LEXCH   =     8    internal setting for exchange type
   VOSKOWN=      0    Vosko Wilk Nusair interpolation
   LHFCALC =     F    Hartree Fock is set to
   LHFONE  =     F    Hartree Fock one center treatment
   AEXX    =    0.0000 exact exchange contribution

 Linear response parameters
   LEPSILON=     F    determine dielectric tensor
   LRPA    =     F    only Hartree local field effects (RPA)
   LNABLA  =     F    use nabla operator in PAW spheres
   LVEL    =     F    velocity operator in full k-point grid
   LINTERFAST=   F  fast interpolation
   KINTER  =     0    interpolate to denser k-point grid
   CSHIFT  =0.1000    complex shift for real part using Kramers Kronig
   OMEGAMAX=  -1.0    maximum frequency
   DEG_THRESHOLD= 0.2000000E-02 threshold for treating states as degnerate
   RTIME   =   -0.100 relaxation time in fs
  (WPLASMAI=    0.000 imaginary part of plasma frequency in eV, 0.658/RTIME)
   DFIELD  = 0.0000000 0.0000000 0.0000000 field for delta impulse in time
 
 Orbital magnetization related:
   ORBITALMAG=     F  switch on orbital magnetization
   LCHIMAG   =     F  perturbation theory with respect to B field
   DQ        =  0.001000  dq finite difference perturbation B field
   LLRAUG    =     F  two centre corrections for induced B field



--------------------------------------------------------------------------------------------------------


 conjugate gradient relaxation of ions
 charge density and potential will be updated during run
 spin polarized calculation
 Variant of blocked Davidson
 Davidson routine will perform the subspace rotation
 perform sub-space diagonalisation
    after iterative eigenvector-optimisation
 modified Broyden-mixing scheme, WC =      100.0
 initial mixing is a Kerker type mixing with AMIX =  0.4000 and BMIX =      1.0000
 Hartree-type preconditioning will be used
 using additional bands            4
 reciprocal scheme for non local part
 use partial core corrections
 calculate Harris-corrections to forces 
   (improved forces if not selfconsistent)
 use gradient corrections 
 use of overlap-Matrix (Vanderbilt PP)
 Fermi weights with tetrahedron method with Bloechl corrections


--------------------------------------------------------------------------------------------------------


  energy-cutoff  :      700.00
  volume of cell :       41.30
      direct lattice vectors                 reciprocal lattice vectors
     0.000000000  2.752777000  2.752777000    -0.183478832  0.181634764  0.181634764
     2.725110000  0.000000000  2.752777000     0.183478832 -0.181634764  0.181634764
     2.725110000  2.752777000  0.000000000     0.183478832  0.181634764 -0.181634764

  length of vectors
     3.893014568  3.873500448  3.873500448     0.315668903  0.315668903  0.315668903


 
 k-points in units of 2pi/SCALE and weight: pymatgen with grid density = 100 / numbe
   0.00000000  0.00000000  0.00000000       0.037
  -0.06115961  0.06054492  0.06054492       0.296
  -0.00000000 -0.00000000  0.12108984       0.148
   0.12231922 -0.12108984 -0.00000000       0.296
   0.12231922  0.00000000 -0.00000000       0.074
   0.18347883 -0.06054492 -0.06054492       0.148
 
 k-points in reciprocal lattice and weights: pymatgen with grid density = 100 / numbe
   0.00000000  0.00000000  0.00000000       0.037
   0.33333333  0.00000000  0.00000000       0.296
   0.33333333  0.33333333 -0.00000000       0.148
  -0.33333333  0.33333333  0.00000000       0.296
  -0.00000000  0.33333333  0.33333333       0.074
  -0.33333333  0.33333333  0.33333333       0.148
 
 position of ions in fractional coordinates (direct lattice) 
   0.75000000  0.75000000  0.75000000
   0.50000000  0.50000000  0.50000000
 
 position of ions in cartesian coordinates  (Angst):
   4.08766500  4.12916550  4.12916550
   2.72511000  2.75277700  2.75277700
 


--------------------------------------------------------------------------------------------------------


 k-point   1 :   0.0000 0.0000 0.0000  plane waves:    1783
 k-point   2 :   0.3333 0.0000 0.0000  plane waves:    1730
 k-point   3 :   0.3333 0.3333-0.0000  plane waves:    1740
 k-point   4 :  -0.3333 0.3333 0.0000  plane waves:    1739
 k-point   5 :  -0.0000 0.3333 0.3333  plane waves:    1728
 k-point   6 :  -0.3333 0.3333 0.3333  plane waves:    1738

 maximum and minimum number of plane-waves per node :      1783     1728

 maximum number of plane-waves:      1783
 maximum index in each direction: 
   IXMAX=    8   IYMAX=    8   IZMAX=    8
   IXMIN=   -8   IYMIN=   -8   IZMIN=   -8


 serial   3D FFT for wavefunctions
 parallel 3D FFT for charge:
    minimum data exchange during FFTs selected (reduces bandwidth)


 total amount of memory used by VASP MPI-rank0    77804. kBytes
=======================================================================

   base      :      30000. kBytes
   nonl-proj :        741. kBytes
   fftplans  :      13060. kBytes
   grid      :      31228. kBytes
   one-center:         12. kBytes
   wavefun   :       2763. kBytes
 
     INWAV:  cpu time    0.0000: real time    0.0000
 Broyden mixing: mesh for mixing (old mesh)
   NGX = 17   NGY = 17   NGZ = 17
  (NGX  = 72   NGY  = 72   NGZ  = 72)
  gives a total of   4913 points

 initial charge density was supplied:
 charge density of overlapping atoms calculated
 number of electron       8.0000000 magnetization       0.0000000
 keeping initial charge density in first step


--------------------------------------------------------------------------------------------------------


 Maximum index for augmentation-charges        36619 (set IRDMAX)


--------------------------------------------------------------------------------------------------------


 First call to EWALD:  gamma=   0.513
 Maximum number of real-space cells 3x 3x 3
 Maximum number of reciprocal cells 3x 3x 3

    FEWALD:  cpu time    0.0009: real time    0.0009


--------------------------------------- Iteration      1(   1)  ---------------------------------------


    POTLOK:  cpu time    0.2369: real time    0.2396
    SETDIJ:  cpu time    0.2787: real time    0.2809
     EDDAV:  cpu time    0.3497: real time    0.3684
 BZINTS: Fermi energy:   10.789444;    8.000000 electrons
         Band energy: 0.261449E+02;  BLOECHL correction:   -0.211818
       DOS:  cpu time    0.0005: real time    0.0005
    --------------------------------------------
      LOOP:  cpu time    0.8658: real time    0.8895

 eigenvalue-minimisations  :   192
 total energy-change (2. order) : 0.1433516E+02  (-0.4069505E+03)
 number of electron       8.0000000 magnetization       0.0000000
 augmentation part        8.0000000 magnetization       0.0000000

 Free energy of the ion-electron system (eV)
  ---------------------------------------------------
  alpha Z        PSCENC =         3.26030628
  Ewald energy   TEWEN  =      -226.19074615
  -Hartree energ DENC   =       -11.47494995
  -exchange      EXHF   =         0.00000000
  -V(xc)+E(xc)   XCENC  =       -18.72411104
  PAW double counting   =       176.24759923     -141.06103558
  entropy T*S    EENTRO =         0.00000000
  eigenvalues    EBANDS =        26.14485227
  atomic energy  EATOM  =       206.13324734
  Solvation  Ediel_sol  =         0.00000000
  ---------------------------------------------------
  free energy    TOTEN  =        14.33516241 eV

  energy without entropy =       14.33516241  energy(sigma->0) =       14.33516241


--------------------------------------------------------------------------------------------------------




--------------------------------------- Iteration      1(   2)  ---------------------------------------


     EDDAV:  cpu time    0.4647: real time    0.4681
 BZINTS: Fermi energy:    5.123806;    8.000000 electrons
         Band energy: 0.164810E+01;  BLOECHL correction:   -0.000000
       DOS:  cpu time    0.0003: real time    0.0003
    --------------------------------------------
      LOOP:  cpu time    0.4649: real time    0.4684

 eigenvalue-minimisations  :   328
 total energy-change (2. order) :-0.2449675E+02  (-0.2448977E+02)
 number of electron       8.0000000 magnetization       0.0000000
 augmentation part        8.0000000 magnetization       0.0000000

 Free energy of the ion-electron system (eV)
  ---------------------------------------------------
  alpha Z        PSCENC =         3.26030628
  Ewald energy   TEWEN  =      -226.19074615
  -Hartree energ DENC   =       -11.47494995
  -exchange      EXHF   =         0.00000000
  -V(xc)+E(xc)   XCENC  =       -18.72411104
  PAW double counting   =       176.24759923     -141.06103558
  entropy T*S    EENTRO =         0.00000000
  eigenvalues    EBANDS =         1.64809826
  atomic energy  EATOM  =       206.13324734
  Solvation  Ediel_sol  =         0.00000000
  ---------------------------------------------------
  free energy    TOTEN  =       -10.16159161 eV

  energy without entropy =      -10.16159161  energy(sigma->0) =      -10.16159161


--------------------------------------------------------------------------------------------------------




--------------------------------------- Iteration      1(   3)  ---------------------------------------


     EDDAV:  cpu time    0.3017: real time    0.3023
 BZINTS: Fermi energy:    5.030156;    8.000000 electrons
         Band energy: 0.134915E+01;  BLOECHL correction:   -0.000000
       DOS:  cpu time    0.0002: real time    0.0002
    --------------------------------------------
      LOOP:  cpu time    0.3019: real time    0.3025

 eigenvalue-minimisations  :   224
 total energy-change (2. order) :-0.2989454E+00  (-0.2989454E+00)
 number of electron       8.0000000 magnetization       0.0000000
 augmentation part        8.0000000 magnetization       0.0000000

 Free energy of the ion-electron system (eV)
  ---------------------------------------------------
  alpha Z        PSCENC =         3.26030628
  Ewald energy   TEWEN  =      -226.19074615
  -Hartree energ DENC   =       -11.47494995
  -exchange      EXHF   =         0.00000000
  -V(xc)+E(xc)   XCENC  =       -18.72411104
  PAW double counting   =       176.24759923     -141.06103558
  entropy T*S    EENTRO =         0.00000000
  eigenvalues    EBANDS =         1.34915283
  atomic energy  EATOM  =       206.13324734
  Solvation  Ediel_sol  =         0.00000000
  ---------------------------------------------------
  free energy    TOTEN  =       -10.46053704 eV

  energy without entropy =      -10.46053704  energy(sigma->0) =      -10.46053704


--------------------------------------------------------------------------------------------------------




--------------------------------------- Iteration      1(   4)  ---------------------------------------


     EDDAV:  cpu time    0.4852: real time    0.4866
 BZINTS: Fermi energy:    5.030061;    8.000000 electrons
         Band energy: 0.134781E+01;  BLOECHL correction:    0.000000
       DOS:  cpu time    0.0004: real time    0.0004
    --------------------------------------------
      LOOP:  cpu time    0.4856: real time    0.4870

 eigenvalue-minimisations  :   352
 total energy-change (2. order) :-0.1341069E-02  (-0.1341070E-02)
 number of electron       8.0000000 magnetization       0.0000000
 augmentation part        8.0000000 magnetization       0.0000000

 Free energy of the ion-electron system (eV)
  ---------------------------------------------------
  alpha Z        PSCENC =         3.26030628
  Ewald energy   TEWEN  =      -226.19074615
  -Hartree energ DENC   =       -11.47494995
  -exchange      EXHF   =         0.00000000
  -V(xc)+E(xc)   XCENC  =       -18.72411104
  PAW double counting   =       176.24759923     -141.06103558
  entropy T*S    EENTRO =         0.00000000
  eigenvalues    EBANDS =         1.34781176
  atomic energy  EATOM  =       206.13324734
  Solvation  Ediel_sol  =         0.00000000
  ---------------------------------------------------
  free energy    TOTEN  =       -10.46187811 eV

  energy without entropy =      -10.46187811  energy(sigma->0) =      -10.46187811


--------------------------------------------------------------------------------------------------------




--------------------------------------- Iteration      1(   5)  ---------------------------------------


     EDDAV:  cpu time    0.3289: real time    0.3297
 BZINTS: Fermi energy:    5.030085;    8.000000 electrons
         Band energy: 0.134781E+01;  BLOECHL correction:    0.000000
       DOS:  cpu time    0.0002: real time    0.0002
    CHARGE:  cpu time    0.0426: real time    0.0426
    MIXING:  cpu time    0.0075: real time    0.0075
    --------------------------------------------
      LOOP:  cpu time    0.3792: real time    0.3800

 eigenvalue-minimisations  :   216
 total energy-change (2. order) :-0.1436407E-05  (-0.1436407E-05)
 number of electron       8.0000000 magnetization       0.0000000
 augmentation part       -0.4587928 magnetization       0.0000001

 Broyden mixing:
  rms(total) = 0.49193E+00    rms(broyden)= 0.49193E+00
  rms(prec ) = 0.10253E+01
  weight for this iteration     100.00

 Free energy of the ion-electron system (eV)
  ---------------------------------------------------
  alpha Z        PSCENC =         3.26030628
  Ewald energy   TEWEN  =      -226.19074615
  -Hartree energ DENC   =       -11.47494995
  -exchange      EXHF   =         0.00000000
  -V(xc)+E(xc)   XCENC  =       -18.72411104
  PAW double counting   =       176.24759923     -141.06103558
  entropy T*S    EENTRO =         0.00000000
  eigenvalues    EBANDS =         1.34781032
  atomic energy  EATOM  =       206.13324734
  Solvation  Ediel_sol  =         0.00000000
  ---------------------------------------------------
  free energy    TOTEN  =       -10.46187955 eV

  energy without entropy =      -10.46187955  energy(sigma->0) =      -10.46187955


--------------------------------------------------------------------------------------------------------




--------------------------------------- Iteration      1(   6)  ---------------------------------------


    POTLOK:  cpu time    0.2611: real time    0.2614
    SETDIJ:  cpu time    0.3639: real time    0.3663
     EDDAV:  cpu time    0.4651: real time    0.4683
 BZINTS: Fermi energy:    5.283754;    8.000000 electrons
         Band energy: 0.305778E+01;  BLOECHL correction:    0.000000
       DOS:  cpu time    0.0004: real time    0.0004
    CHARGE:  cpu time    0.0736: real time    0.0749
    MIXING:  cpu time    0.0120: real time    0.0125
    --------------------------------------------
      LOOP:  cpu time    1.1760: real time    1.1837

 eigenvalue-minimisations  :   240
 total energy-change (2. order) : 0.1513409E+00  (-0.9435784E-02)
 number of electron       8.0000000 magnetization      -0.0000000
 augmentation part       -0.4519590 magnetization      -0.0000018

 Broyden mixing:
  rms(total) = 0.30247E+00    rms(broyden)= 0.30247E+00
  rms(prec ) = 0.61428E+00
  weight for this iteration     100.00

 eigenvalues of (default mixing * dielectric matrix)
  average eigenvalue GAMMA=   2.5834
  2.5834

 Free energy of the ion-electron system (eV)
  ---------------------------------------------------
  alpha Z        PSCENC =         3.26030628
  Ewald energy   TEWEN  =      -226.19074615
  -Hartree energ DENC   =       -13.18162129
  -exchange      EXHF   =         0.00000000
  -V(xc)+E(xc)   XCENC  =       -18.46690893
  PAW double counting   =       370.76063180     -335.68322689
  entropy T*S    EENTRO =         0.00000000
  eigenvalues    EBANDS =         3.05777914
  atomic energy  EATOM  =       206.13324734
  Solvation  Ediel_sol  =         0.00000000
  ---------------------------------------------------
  free energy    TOTEN  =       -10.31053869 eV

  energy without entropy =      -10.31053869  energy(sigma->0) =      -10.31053869


--------------------------------------------------------------------------------------------------------




--------------------------------------- Iteration      1(   7)  ---------------------------------------


    POTLOK:  cpu time    0.4044: real time    0.4085
    SETDIJ:  cpu time    0.3279: real time    0.3316
     EDDAV:  cpu time    0.3647: real time    0.3674
 BZINTS: Fermi energy:    5.677375;    8.000000 electrons
         Band energy: 0.571802E+01;  BLOECHL correction:    0.000000
       DOS:  cpu time    0.0002: real time    0.0002
    CHARGE:  cpu time    0.0526: real time    0.0530
    MIXING:  cpu time    0.0093: real time    0.0149
    --------------------------------------------
      LOOP:  cpu time    1.1591: real time    1.1757

 eigenvalue-minimisations  :   224
 total energy-change (2. order) : 0.6834119E-01  (-0.1878365E-01)
 number of electron       8.0000000 magnetization       0.0000000
 augmentation part       -0.4434488 magnetization      -0.0000084

 Broyden mixing:
  rms(total) = 0.20191E-01    rms(broyden)= 0.20191E-01
  rms(prec ) = 0.46288E-01
  weight for this iteration     100.00

 eigenvalues of (default mixing * dielectric matrix)
  average eigenvalue GAMMA=   2.0847
  1.8077  2.3617

 Free energy of the ion-electron system (eV)
  ---------------------------------------------------
  alpha Z        PSCENC =         3.26030628
  Ewald energy   TEWEN  =      -226.19074615
  -Hartree energ DENC   =       -16.07790615
  -exchange      EXHF   =         0.00000000
  -V(xc)+E(xc)   XCENC  =       -18.02106504
  PAW double counting   =       842.33151846     -807.39557272
  entropy T*S    EENTRO =         0.00000000
  eigenvalues    EBANDS =         5.71802048
  atomic energy  EATOM  =       206.13324734
  Solvation  Ediel_sol  =         0.00000000
  ---------------------------------------------------
  free energy    TOTEN  =       -10.24219750 eV

  energy without entropy =      -10.24219750  energy(sigma->0) =      -10.24219750


--------------------------------------------------------------------------------------------------------




--------------------------------------- Iteration      1(   8)  ---------------------------------------


    POTLOK:  cpu time    0.2487: real time    0.2490
    SETDIJ:  cpu time    0.2897: real time    0.2908
     EDDAV:  cpu time    0.3058: real time    0.3119
 BZINTS: Fermi energy:    5.662915;    8.000000 electrons
         Band energy: 0.563067E+01;  BLOECHL correction:   -0.000000
       DOS:  cpu time    0.0002: real time    0.0002
    CHARGE:  cpu time    0.0484: real time    0.0487
    MIXING:  cpu time    0.0147: real time    0.0149
    --------------------------------------------
      LOOP:  cpu time    0.9075: real time    0.9156

 eigenvalue-minimisations  :   216
 total energy-change (2. order) :-0.2422703E-02  (-0.5318012E-03)
 number of electron       8.0000000 magnetization      -0.0000000
 augmentation part       -0.4445313 magnetization       0.0000059

 Broyden mixing:
  rms(total) = 0.73281E-02    rms(broyden)= 0.73281E-02
  rms(prec ) = 0.15057E-01
  weight for this iteration     100.00

 eigenvalues of (default mixing * dielectric matrix)
  average eigenvalue GAMMA=   2.0073
  1.4445  2.5390  2.0385

 Free energy of the ion-electron system (eV)
  ---------------------------------------------------
  alpha Z        PSCENC =         3.26030628
  Ewald energy   TEWEN  =      -226.19074615
  -Hartree energ DENC   =       -16.02455042
  -exchange      EXHF   =         0.00000000
  -V(xc)+E(xc)   XCENC  =       -18.01964995
  PAW double counting   =       850.19552190     -815.22941828
  entropy T*S    EENTRO =         0.00000000
  eigenvalues    EBANDS =         5.63066907
  atomic energy  EATOM  =       206.13324734
  Solvation  Ediel_sol  =         0.00000000
  ---------------------------------------------------
  free energy    TOTEN  =       -10.24462020 eV

  energy without entropy =      -10.24462020  energy(sigma->0) =      -10.24462020


--------------------------------------------------------------------------------------------------------




--------------------------------------- Iteration      1(   9)  ---------------------------------------


    POTLOK:  cpu time    0.3104: real time    0.3127
    SETDIJ:  cpu time    0.2911: real time    0.2921
     EDDAV:  cpu time    0.4530: real time    0.4546
 BZINTS: Fermi energy:    5.667965;    8.000000 electrons
         Band energy: 0.566937E+01;  BLOECHL correction:   -0.000000
       DOS:  cpu time    0.0003: real time    0.0003
    CHARGE:  cpu time    0.0633: real time    0.0637
    MIXING:  cpu time    0.0096: real time    0.0096
    --------------------------------------------
      LOOP:  cpu time    1.1275: real time    1.1329

 eigenvalue-minimisations  :   280
 total energy-change (2. order) :-0.4356597E-03  (-0.4286595E-04)
 number of electron       8.0000000 magnetization      -0.0000000
 augmentation part       -0.4446905 magnetization       0.0000045

 Broyden mixing:
  rms(total) = 0.60381E-02    rms(broyden)= 0.60381E-02
  rms(prec ) = 0.71540E-02
  weight for this iteration     100.00

 eigenvalues of (default mixing * dielectric matrix)
  average eigenvalue GAMMA=   1.9024
  2.9268  2.0456  2.0456  0.5918

 Free energy of the ion-electron system (eV)
  ---------------------------------------------------
  alpha Z        PSCENC =         3.26030628
  Ewald energy   TEWEN  =      -226.19074615
  -Hartree energ DENC   =       -16.07723563
  -exchange      EXHF   =         0.00000000
  -V(xc)+E(xc)   XCENC  =       -18.01025064
  PAW double counting   =       851.80477172     -816.83451649
  entropy T*S    EENTRO =         0.00000000
  eigenvalues    EBANDS =         5.66936770
  atomic energy  EATOM  =       206.13324734
  Solvation  Ediel_sol  =         0.00000000
  ---------------------------------------------------
  free energy    TOTEN  =       -10.24505586 eV

  energy without entropy =      -10.24505586  energy(sigma->0) =      -10.24505586


--------------------------------------------------------------------------------------------------------




--------------------------------------- Iteration      1(  10)  ---------------------------------------


    POTLOK:  cpu time    0.2915: real time    0.2952
    SETDIJ:  cpu time    0.2818: real time    0.2821
     EDDAV:  cpu time    0.3444: real time    0.3456
 BZINTS: Fermi energy:    5.669058;    8.000000 electrons
         Band energy: 0.567940E+01;  BLOECHL correction:   -0.000000
       DOS:  cpu time    0.0003: real time    0.0003
    CHARGE:  cpu time    0.0547: real time    0.0550
    MIXING:  cpu time    0.0085: real time    0.0086
    --------------------------------------------
      LOOP:  cpu time    0.9811: real time    0.9868

 eigenvalue-minimisations  :   224
 total energy-change (2. order) :-0.4001772E-04  (-0.3240062E-05)
 number of electron       8.0000000 magnetization      -0.0000000
 augmentation part       -0.4446647 magnetization      -0.0000008

 Broyden mixing:
  rms(total) = 0.20633E-02    rms(broyden)= 0.20633E-02
  rms(prec ) = 0.25432E-02
  weight for this iteration     100.00

 eigenvalues of (default mixing * dielectric matrix)
  average eigenvalue GAMMA=   1.8217
  3.0049  2.2927  2.2927  0.8723  0.6460

 Free energy of the ion-electron system (eV)
  ---------------------------------------------------
  alpha Z        PSCENC =         3.26030628
  Ewald energy   TEWEN  =      -226.19074615
  -Hartree energ DENC   =       -16.08761602
  -exchange      EXHF   =         0.00000000
  -V(xc)+E(xc)   XCENC  =       -18.00955728
  PAW double counting   =       844.58424881     -809.61437907
  entropy T*S    EENTRO =         0.00000000
  eigenvalues    EBANDS =         5.67940021
  atomic energy  EATOM  =       206.13324734
  Solvation  Ediel_sol  =         0.00000000
  ---------------------------------------------------
  free energy    TOTEN  =       -10.24509588 eV

  energy without entropy =      -10.24509588  energy(sigma->0) =      -10.24509588


--------------------------------------------------------------------------------------------------------




--------------------------------------- Iteration      1(  11)  ---------------------------------------


    POTLOK:  cpu time    0.2574: real time    0.2584
    SETDIJ:  cpu time    0.2933: real time    0.2948
     EDDAV:  cpu time    0.4183: real time    0.4205
 BZINTS: Fermi energy:    5.669306;    8.000000 electrons
         Band energy: 0.568211E+01;  BLOECHL correction:   -0.000000
       DOS:  cpu time    0.0002: real time    0.0002
    CHARGE:  cpu time    0.0410: real time    0.0410
    MIXING:  cpu time    0.0080: real time    0.0080
    --------------------------------------------
      LOOP:  cpu time    1.0183: real time    1.0231

 eigenvalue-minimisations  :   248
 total energy-change (2. order) :-0.6471676E-05  (-0.6625279E-06)
 number of electron       8.0000000 magnetization       0.0000000
 augmentation part       -0.4446572 magnetization      -0.0000003

 Broyden mixing:
  rms(total) = 0.46962E-03    rms(broyden)= 0.46962E-03
  rms(prec ) = 0.56306E-03
  weight for this iteration     100.00

 eigenvalues of (default mixing * dielectric matrix)
  average eigenvalue GAMMA=   1.6741
  3.0162  2.4505  2.1652  0.8958  0.8958  0.6210

 Free energy of the ion-electron system (eV)
  ---------------------------------------------------
  alpha Z        PSCENC =         3.26030628
  Ewald energy   TEWEN  =      -226.19074615
  -Hartree energ DENC   =       -16.09025993
  -exchange      EXHF   =         0.00000000
  -V(xc)+E(xc)   XCENC  =       -18.00960804
  PAW double counting   =       841.20981206     -806.23996513
  entropy T*S    EENTRO =         0.00000000
  eigenvalues    EBANDS =         5.68211121
  atomic energy  EATOM  =       206.13324734
  Solvation  Ediel_sol  =         0.00000000
  ---------------------------------------------------
  free energy    TOTEN  =       -10.24510235 eV

  energy without entropy =      -10.24510235  energy(sigma->0) =      -10.24510235


--------------------------------------------------------------------------------------------------------




--------------------------------------- Iteration      1(  12)  ---------------------------------------


    POTLOK:  cpu time    0.2742: real time    0.2757
    SETDIJ:  cpu time    0.2781: real time    0.2786
     EDDAV:  cpu time    0.5791: real time    0.5824
 BZINTS: Fermi energy:    5.669308;    8.000000 electrons
         Band energy: 0.568144E+01;  BLOECHL correction:   -0.000000
       DOS:  cpu time    0.0002: real time    0.0002
    --------------------------------------------
      LOOP:  cpu time    1.1316: real time    1.1368

 eigenvalue-minimisations  :   304
 total energy-change (2. order) : 0.1419480E-07  (-0.2169218E-07)
 number of electron       8.0000000 magnetization       0.0000000
 augmentation part       -0.4446572 magnetization      -0.0000003

 Free energy of the ion-electron system (eV)
  ---------------------------------------------------
  alpha Z        PSCENC =         3.26030628
  Ewald energy   TEWEN  =      -226.19074615
  -Hartree energ DENC   =       -16.08966063
  -exchange      EXHF   =         0.00000000
  -V(xc)+E(xc)   XCENC  =       -18.00970320
  PAW double counting   =       841.75118573     -806.78116694
  entropy T*S    EENTRO =         0.00000000
  eigenvalues    EBANDS =         5.68143523
  atomic energy  EATOM  =       206.13324734
  Solvation  Ediel_sol  =         0.00000000
  ---------------------------------------------------
  free energy    TOTEN  =       -10.24510233 eV

  energy without entropy =      -10.24510233  energy(sigma->0) =      -10.24510233


--------------------------------------------------------------------------------------------------------




 average (electrostatic) potential at core
  the test charge radii are     0.9892
  (the norm of the test charge is              1.0000)
       1 -83.4280       2 -83.4280
 
 
 
 E-fermi :   5.6693     XC(G=0):  -9.2203     alpha+bet :-11.6146

 Fermi energy:         5.6693082347

 spin component 1

 k-point     1 :       0.0000    0.0000    0.0000
  band No.  band energies     occupation 
      1      -6.1429      1.00000
      2       5.6008      1.00000
      3       5.6008      1.00000
      4       5.6695      1.00000
      5       8.1076      0.00000
      6       8.1458      0.00000
      7       8.1458      0.00000
      8       8.6515      0.00000

 k-point     2 :       0.3333    0.0000    0.0000
  band No.  band energies     occupation 
      1      -4.8026      1.00000
      2       0.3650      1.00000
      3       4.5982      1.00000
      4       4.6803      1.00000
      5       7.2617      0.00000
      6       9.0510      0.00000
      7       9.1107      0.00000
      8      13.3481      0.00000

 k-point     3 :       0.3333    0.3333   -0.0000
  band No.  band energies     occupation 
      1      -4.2962      1.00000
      2       0.6127      1.00000
      3       3.2736      1.00000
      4       3.2873      1.00000
      5       6.3893      0.00000
      6       7.6246      0.00000
      7      12.6390      0.00000
      8      12.8208      0.00000

 k-point     4 :      -0.3333    0.3333    0.0000
  band No.  band energies     occupation 
      1      -2.9694      1.00000
      2      -1.0911      1.00000
      3       1.3165      1.00000
      4       3.5810      1.00000
      5       7.2112      0.00000
      6      11.4126      0.00000
      7      11.9517      0.00000
      8      12.5227      0.00000

 k-point     5 :      -0.0000    0.3333    0.3333
  band No.  band energies     occupation 
      1      -4.2660      1.00000
      2       0.6827      1.00000
      3       3.2139      1.00000
      4       3.2139      1.00000
      5       6.3000      0.00000
      6       7.5999      0.00000
      7      12.7385      0.00000
      8      12.7385      0.00000

 k-point     6 :      -0.3333    0.3333    0.3333
  band No.  band energies     occupation 
      1      -2.9713      1.00000
      2      -1.0446      1.00000
      3       1.3497      1.00000
      4       3.5036      1.00000
      5       7.1236      0.00000
      6      11.2786      0.00000
      7      11.9528      0.00000
      8      12.5736      0.00000
 Fermi energy:         5.6693082347

 spin component 2

 k-point     1 :       0.0000    0.0000    0.0000
  band No.  band energies     occupation 
      1      -6.1429      1.00000
      2       5.6008      1.00000
      3       5.6008      1.00000
      4       5.6694      1.00000
      5       8.1076      0.00000
      6       8.1459      0.00000
      7       8.1459      0.00000
      8       8.6515      0.00000

 k-point     2 :       0.3333    0.0000    0.0000
  band No.  band energies     occupation 
      1      -4.8026      1.00000
      2       0.3650      1.00000
      3       4.5982      1.00000
      4       4.6803      1.00000
      5       7.2617      0.00000
      6       9.0510      0.00000
      7       9.1107      0.00000
      8      13.3480      0.00000

 k-point     3 :       0.3333    0.3333   -0.0000
  band No.  band energies     occupation 
      1      -4.2962      1.00000
      2       0.6127      1.00000
      3       3.2737      1.00000
      4       3.2874      1.00000
      5       6.3893      0.00000
      6       7.6246      0.00000
      7      12.6391      0.00000
      8      12.8209      0.00000

 k-point     4 :      -0.3333    0.3333    0.0000
  band No.  band energies     occupation 
      1      -2.9694      1.00000
      2      -1.0911      1.00000
      3       1.3165      1.00000
      4       3.5810      1.00000
      5       7.2111      0.00000
      6      11.4126      0.00000
      7      11.9517      0.00000
      8      12.5227      0.00000

 k-point     5 :      -0.0000    0.3333    0.3333
  band No.  band energies     occupation 
      1      -4.2660      1.00000
      2       0.6827      1.00000
      3       3.2140      1.00000
      4       3.2140      1.00000
      5       6.3000      0.00000
      6       7.5999      0.00000
      7      12.7385      0.00000
      8      12.7385      0.00000

 k-point     6 :      -0.3333    0.3333    0.3333
  band No.  band energies     occupation 
      1      -2.9713      1.00000
      2      -1.0446      1.00000
      3       1.3497      1.00000
      4       3.5036      1.00000
      5       7.1236      0.00000
      6      11.2785      0.00000
      7      11.9528      0.00000
      8      12.5735      0.00000


--------------------------------------------------------------------------------------------------------


 soft charge-density along one line, spin component           1
         0         1         2         3         4         5         6         7         8         9
 total charge-density along one line
 
 soft charge-density along one line, spin component           2
         0         1         2         3         4         5         6         7         8         9
 total charge-density along one line
 
 pseudopotential strength for first ion, spin component:           1
 18.434  25.718  -0.000  -0.000  -0.000  -0.000  -0.000  -0.000
 25.718  35.887  -0.000  -0.000  -0.000  -0.000  -0.000  -0.000
 -0.000  -0.000   4.181   0.000   0.000   7.791   0.000   0.000
 -0.000  -0.000   0.000   4.181   0.000   0.000   7.791   0.000
 -0.000  -0.000   0.000   0.000   4.181   0.000   0.000   7.791
 -0.000  -0.000   7.791   0.000   0.000  14.529   0.000   0.000
 -0.000  -0.000   0.000   7.791   0.000   0.000  14.529   0.000
 -0.000  -0.000   0.000   0.000   7.791   0.000   0.000  14.529
 pseudopotential strength for first ion, spin component:           2
 18.434  25.718   0.000   0.000   0.000   0.000   0.000   0.000
 25.718  35.887   0.000   0.000   0.000   0.000   0.000   0.000
  0.000   0.000   4.181   0.000   0.000   7.791   0.000   0.000
  0.000   0.000   0.000   4.181   0.000   0.000   7.791   0.000
  0.000   0.000   0.000   0.000   4.181   0.000   0.000   7.791
  0.000   0.000   7.791   0.000   0.000  14.529   0.000   0.000
  0.000   0.000   0.000   7.791   0.000   0.000  14.529   0.000
  0.000   0.000   0.000   0.000   7.791   0.000   0.000  14.529
 total augmentation occupancy for first ion, spin component:           1
  5.544  -2.064   0.000   0.000   0.000   0.000   0.000   0.000
 -2.064   0.839   0.000   0.000   0.000  -0.000   0.000   0.000
 -0.000   0.000   2.945   0.000   0.000  -0.648  -0.000  -0.000
  0.000   0.000   0.000   2.945   0.000  -0.000  -0.648  -0.000
  0.000   0.000   0.000   0.000   2.926  -0.000  -0.000  -0.640
 -0.000  -0.000  -0.648  -0.000  -0.000   0.153   0.000   0.000
  0.000  -0.000  -0.000  -0.648  -0.000   0.000   0.153   0.000
  0.000   0.000  -0.000  -0.000  -0.640   0.000   0.000   0.150
 total augmentation occupancy for first ion, spin component:           2
  0.000  -0.000   0.000   0.000   0.000   0.000  -0.000   0.000
 -0.000   0.000   0.000  -0.000   0.000   0.000   0.000   0.000
  0.000   0.000  -0.000  -0.000  -0.000   0.000   0.000   0.000
  0.000  -0.000  -0.000  -0.000   0.000   0.000   0.000   0.000
  0.000   0.000  -0.000   0.000  -0.000   0.000   0.000   0.000
  0.000   0.000   0.000   0.000   0.000  -0.000  -0.000  -0.000
 -0.000   0.000   0.000   0.000   0.000  -0.000  -0.000   0.000
  0.000   0.000   0.000   0.000   0.000  -0.000   0.000  -0.000


------------------------ aborting loop because EDIFF is reached ----------------------------------------





 total charge

# of ion       s       p       d       tot
------------------------------------------
    1        0.718   0.964   0.000   1.682
    2        0.718   0.964   0.000   1.682
--------------------------------------------------
tot          1.436   1.928   0.000   3.364



 magnetization (x)

# of ion       s       p       d       tot
------------------------------------------
    1       -0.000  -0.000   0.000  -0.000
    2       -0.000  -0.000   0.000  -0.000
--------------------------------------------------
tot         -0.000  -0.000   0.000  -0.000
 
    CHARGE:  cpu time    0.0682: real time    0.0686
    FORLOC:  cpu time    0.0077: real time    0.0079
    FORNL :  cpu time    0.0798: real time    0.0805
    STRESS:  cpu time    0.2562: real time    0.2589
    FORCOR:  cpu time    0.4170: real time    0.4209
    FORHAR:  cpu time    0.0475: real time    0.0479
    MIXING:  cpu time    0.0092: real time    0.0092
    OFIELD:  cpu time    0.0001: real time    0.0001

  FORCE on cell =-STRESS in cart. coord.  units (eV):
  Direction    XX          YY          ZZ          XY          YZ          ZX
  --------------------------------------------------------------------------------------
  Alpha Z     3.26031     3.26031     3.26031
  Ewald     -76.09547   -75.04769   -75.04769     0.00000     0.00000    -0.00000
  Hartree     5.23021     5.43029     5.43029     0.00000     0.00000     0.00000
  E(xc)     -25.32060   -25.31941   -25.31941     0.00000     0.00000     0.00000
  Local     -29.19703   -30.50698   -30.50698     0.00000     0.00000     0.00000
  n-local    76.40477    78.53067    74.52802     2.36151    -1.75080     1.24031
  augment   -11.30669   -11.30483   -11.30483    -0.00000    -0.00000    -0.00000
  Kinetic    57.43287    58.84146    55.37612     3.60247    -2.71671     1.73564
  Fock        0.00000     0.00000     0.00000     0.00000     0.00000     0.00000
  -------------------------------------------------------------------------------------
  Total       0.40839     0.14983     0.14983     0.00000     0.00000     0.00000
  in kB      15.84261     5.81232     5.81232     0.00000     0.00000     0.00000
  external pressure =        9.16 kB  Pullay stress =        0.00 kB


 VOLUME and BASIS-vectors are now :
 -----------------------------------------------------------------------------
  energy-cutoff  :      700.00
  volume of cell :       41.30
      direct lattice vectors                 reciprocal lattice vectors
     0.000000000  2.752777000  2.752777000    -0.183478832  0.181634764  0.181634764
     2.725110000  0.000000000  2.752777000     0.183478832 -0.181634764  0.181634764
     2.725110000  2.752777000  0.000000000     0.183478832  0.181634764 -0.181634764

  length of vectors
     3.893014568  3.873500448  3.873500448     0.315668903  0.315668903  0.315668903


 FORCES acting on ions
    electron-ion (+dipol)            ewald-force                    non-local-force                 convergence-correction
 -----------------------------------------------------------------------------------------------
   -.824E-08 -.629E-08 -.619E-08   0.120E-14 0.118E-14 0.230E-14   -.681E-16 -.171E-15 -.180E-15   -.340E-10 -.281E-10 -.281E-10
   0.824E-08 0.629E-08 0.619E-08   -.906E-15 -.111E-14 -.194E-14   0.626E-16 0.154E-15 0.163E-15   0.340E-10 0.281E-10 0.281E-10
 -----------------------------------------------------------------------------------------------
   0.365E-12 0.930E-13 0.243E-12   0.298E-15 0.678E-16 0.357E-15   -.555E-17 -.172E-16 -.174E-16   -.104E-14 -.130E-14 0.884E-15
 
 
 POSITION                                       TOTAL-FORCE (eV/Angst)
 -----------------------------------------------------------------------------------
      4.08766      4.12917      4.12917         0.000000     -0.000000     -0.000000
      2.72511      2.75278      2.75278        -0.000000      0.000000      0.000000
 -----------------------------------------------------------------------------------
    total drift:                                0.000000      0.000000      0.000000


--------------------------------------------------------------------------------------------------------



  FREE ENERGIE OF THE ION-ELECTRON SYSTEM (eV)
  ---------------------------------------------------
  free  energy   TOTEN  =       -10.24510233 eV

  energy  without entropy=      -10.24510233  energy(sigma->0) =      -10.24510233
 


--------------------------------------------------------------------------------------------------------


    POTLOK:  cpu time    0.7518: real time    0.7584


--------------------------------------------------------------------------------------------------------




--------------------------------------------------------------------------------------------------------


     LOOP+:  cpu time   13.1386: real time   13.2568
    4ORBIT:  cpu time    0.0000: real time    0.0000



 total charge

# of ion       s       p       d       tot
------------------------------------------
    1        0.718   0.964   0.000   1.682
    2        0.718   0.964   0.000   1.682
--------------------------------------------------
tot          1.436   1.928   0.000   3.364



 magnetization (x)

# of ion       s       p       d       tot
------------------------------------------
    1       -0.000  -0.000   0.000  -0.000
    2       -0.000  -0.000   0.000  -0.000
--------------------------------------------------
tot         -0.000  -0.000   0.000  -0.000
 
 BZINTS: Fermi energy:    5.669308;    8.000000 electrons
         Band energy: 0.568144E+01;  BLOECHL correction:   -0.000000

 total amount of memory used by VASP MPI-rank0    77804. kBytes
=======================================================================

   base      :      30000. kBytes
   nonl-proj :        741. kBytes
   fftplans  :      13060. kBytes
   grid      :      31228. kBytes
   one-center:         12. kBytes
   wavefun   :       2763. kBytes
 
  
  
 General timing and accounting informations for this job:
 ========================================================
  
                  Total CPU time used (sec):       17.861
                            User time (sec):       15.428
                          System time (sec):        2.433
                         Elapsed time (sec):       18.089
  
                   Maximum memory used (kb):   118259712.
                   Average memory used (kb):          N/A
  
                          Minor page faults:       156970
                          Major page faults:          412
                 Voluntary context switches:           11
