<?xml version="1.0" encoding="ISO-8859-1"?>
<modeling>
 <generator>
  <i name="program" type="string">vasp </i>
  <i name="version" type="string">6.2.1  </i>
  <i name="subversion" type="string">16May21 (build Oct 27 2021 18:14:32) complex                          parallel </i>
  <i name="platform" type="string">LinuxIFC </i>
  <i name="date" type="string">2021 11 08 </i>
  <i name="time" type="string">17:28:10 </i>
 </generator>
 <incar>
  <i type="string" name="PREC">Accurate</i>
  <i type="string" name="ALGO">Normal</i>
  <i type="int" name="ISPIN">     2</i>
  <i type="int" name="NELM">   200</i>
  <i type="int" name="IBRION">     2</i>
  <i name="EDIFF">      0.00000010</i>
  <i name="EDIFFG">     -0.00100000</i>
  <i type="int" name="NSW">     1</i>
  <i type="int" name="ISIF">     3</i>
  <i name="ENCUT">    700.00000000</i>
  <i name="ENAUG">   1360.00000000</i>
  <v name="MAGMOM">      0.00000000      0.00000000</v>
  <i type="logical" name="LREAL"> F  </i>
  <i type="int" name="ISMEAR">    -5</i>
  <i name="SIGMA">      0.05000000</i>
  <i name="KSPACING">      0.29252878</i>
  <i type="logical" name="LWAVE"> F  </i>
  <i type="logical" name="LCHARG"> T  </i>
  <i type="logical" name="LVTOT"> T  </i>
  <i type="int" name="LORBIT">    11</i>
  <i type="logical" name="LELF"> T  </i>
  <i type="logical" name="LASPH"> T  </i>
  <i type="logical" name="LAECHG"> F  </i>
  <i type="logical" name="LMIXTAU"> T  </i>
 </incar>
 <primitive_cell>
  <structure name="primitive_cell" >
   <crystal>
    <varray name="basis" >
     <v>       0.00000000       2.75277700       2.75277700 </v>
     <v>       2.72511000       0.00000000       2.75277700 </v>
     <v>       2.72511000       2.75277700       0.00000000 </v>
    </varray>
    <i name="volume">     41.30057472 </i>
    <varray name="rec_basis" >
     <v>      -0.18347883       0.18163476       0.18163476 </v>
     <v>       0.18347883      -0.18163476       0.18163476 </v>
     <v>       0.18347883       0.18163476      -0.18163476 </v>
    </varray>
   </crystal>
   <varray name="positions" >
    <v>       0.75000000       0.75000000       0.75000000 </v>
    <v>       0.50000000       0.50000000       0.50000000 </v>
   </varray>
  </structure>
  <varray name="primitive_index" >
   <v type="int" >        1 </v>
   <v type="int" >        2 </v>
  </varray>
 </primitive_cell>
 <kpoints>
  <generation param="Gamma">
   <v type="int" name="divisions">       3        3        3 </v>
   <v name="usershift">      0.00000000       0.00000000       0.00000000 </v>
   <v name="genvec1">      0.33333333      -0.00000000      -0.00000000 </v>
   <v name="genvec2">      0.00000000       0.33333333       0.00000000 </v>
   <v name="genvec3">     -0.00000000       0.00000000       0.33333333 </v>
   <v name="shift">      0.00000000       0.00000000       0.00000000 </v>
  </generation>
  <varray name="kpointlist" >
   <v>       0.00000000       0.00000000       0.00000000 </v>
   <v>       0.33333333       0.00000000       0.00000000 </v>
   <v>       0.33333333       0.33333333      -0.00000000 </v>
   <v>      -0.33333333       0.33333333       0.00000000 </v>
   <v>      -0.00000000       0.33333333       0.33333333 </v>
   <v>      -0.33333333       0.33333333       0.33333333 </v>
  </varray>
  <varray name="weights" >
   <v>       0.03703704 </v>
   <v>       0.29629630 </v>
   <v>       0.14814815 </v>
   <v>       0.29629630 </v>
   <v>       0.07407407 </v>
   <v>       0.14814815 </v>
  </varray>
  <varray name="tetrahedronlist"  type="int" >
   <v type="int" >       16        1        2        2        3 </v>
   <v type="int" >        8        1        2        2        5 </v>
   <v type="int" >       16        2        3        4        6 </v>
   <v type="int" >       16        2        2        4        6 </v>
   <v type="int" >        8        2        2        3        6 </v>
   <v type="int" >        8        2        2        4        5 </v>
   <v type="int" >       16        2        4        5        6 </v>
   <v type="int" >        8        2        2        4        4 </v>
   <v type="int" >       16        2        3        4        4 </v>
   <v type="int" >        8        2        2        3        4 </v>
   <v type="int" >        8        3        3        4        4 </v>
   <v type="int" >        8        3        4        4        6 </v>
   <v type="int" >        8        3        4        4        4 </v>
   <v type="int" >        4        4        4        6        6 </v>
   <v type="int" >        8        4        5        6        6 </v>
   <v type="int" >        2        4        4        4        4 </v>
   <v type="int" >        4        5        5        6        6 </v>
  </varray>
  <i name="volumeweight">      0.00617284 </i>
 </kpoints>
 <parameters>
  <separator name="general" >
   <i type="string" name="SYSTEM">unknown system</i>
   <i type="logical" name="LCOMPAT"> F  </i>
  </separator>
  <separator name="electronic" >
   <i type="string" name="PREC">accura</i>
   <i name="ENMAX">    700.00000000</i>
   <i name="ENAUG">   1360.00000000</i>
   <i name="EDIFF">      0.00000010</i>
   <i type="int" name="IALGO">    38</i>
   <i type="int" name="IWAVPR">    11</i>
   <i type="int" name="NBANDS">     8</i>
   <i type="int" name="NBANDSLOW">    -1</i>
   <i type="int" name="NBANDSHIGH">    -1</i>
   <i name="NELECT">      8.00000000</i>
   <i type="int" name="TURBO">     0</i>
   <i type="int" name="IRESTART">     0</i>
   <i type="int" name="NREBOOT">     0</i>
   <i type="int" name="NMIN">     0</i>
   <i name="EREF">      0.00000000</i>
   <separator name="electronic smearing" >
    <i type="int" name="ISMEAR">    -5</i>
    <i name="SIGMA">      0.05000000</i>
    <i name="KSPACING">      0.29252878</i>
    <i type="logical" name="KGAMMA"> T  </i>
    <i type="logical" name="KBLOWUP"> T  </i>
   </separator>
   <separator name="electronic projectors" >
    <i type="logical" name="LREAL"> F  </i>
    <v name="ROPT">      0.00000000</v>
    <i type="int" name="LMAXPAW">  -100</i>
    <i type="int" name="LMAXMIX">     2</i>
    <i type="logical" name="NLSPLINE"> F  </i>
   </separator>
   <separator name="electronic startup" >
    <i type="int" name="ISTART">     0</i>
    <i type="int" name="ICHARG">     2</i>
    <i type="int" name="INIWAV">     1</i>
   </separator>
   <separator name="electronic spin" >
    <i type="int" name="ISPIN">     2</i>
    <i type="logical" name="LNONCOLLINEAR"> F  </i>
    <v name="MAGMOM">      0.00000000      0.00000000</v>
    <i name="NUPDOWN">     -1.00000000</i>
    <i type="logical" name="LSORBIT"> F  </i>
    <v name="SAXIS">      0.00000000      0.00000000      1.00000000</v>
    <i type="logical" name="LSPIRAL"> F  </i>
    <v name="QSPIRAL">      0.00000000      0.00000000      0.00000000</v>
    <i type="logical" name="LZEROZ"> F  </i>
   </separator>
   <separator name="electronic exchange-correlation" >
    <i type="logical" name="LASPH"> T  </i>
    <i type="logical" name="LMETAGGA"> F  </i>
   </separator>
   <separator name="electronic convergence" >
    <i type="int" name="NELM">   200</i>
    <i type="int" name="NELMDL">    -5</i>
    <i type="int" name="NELMIN">     2</i>
    <i name="ENINI">    700.00000000</i>
    <separator name="electronic convergence detail" >
     <i type="logical" name="LDIAG"> T  </i>
     <i type="logical" name="LSUBROT"> F  </i>
     <i name="WEIMIN">      0.00100000</i>
     <i name="EBREAK">      0.00000000</i>
     <i name="DEPER">      0.30000000</i>
     <i type="int" name="NRMM">     4</i>
     <i name="TIME">      0.40000000</i>
    </separator>
   </separator>
   <separator name="electronic mixer" >
    <i name="AMIX">      0.40000000</i>
    <i name="BMIX">      1.00000000</i>
    <i name="AMIN">      0.10000000</i>
    <i name="AMIX_MAG">      1.60000000</i>
    <i name="BMIX_MAG">      1.00000000</i>
    <separator name="electronic mixer details" >
     <i type="int" name="IMIX">     4</i>
     <i type="logical" name="MIXFIRST"> F  </i>
     <i type="int" name="MAXMIX">   -45</i>
     <i name="WC">    100.00000000</i>
     <i type="int" name="INIMIX">     1</i>
     <i type="int" name="MIXPRE">     1</i>
     <i type="int" name="MREMOVE">     5</i>
    </separator>
   </separator>
   <separator name="electronic dipolcorrection" >
    <i type="logical" name="LDIPOL"> F  </i>
    <i type="logical" name="LMONO"> F  </i>
    <i type="int" name="IDIPOL">     0</i>
    <i name="EPSILON">      1.00000000</i>
    <v name="DIPOL">   -100.00000000   -100.00000000   -100.00000000</v>
    <i name="EFIELD">      0.00000000</i>
   </separator>
  </separator>
  <separator name="grids" >
   <i type="int" name="NGX">    36</i>
   <i type="int" name="NGY">    36</i>
   <i type="int" name="NGZ">    36</i>
   <i type="int" name="NGXF">    72</i>
   <i type="int" name="NGYF">    72</i>
   <i type="int" name="NGZF">    72</i>
   <i type="logical" name="ADDGRID"> F  </i>
  </separator>
  <separator name="ionic" >
   <i type="int" name="NSW">     1</i>
   <i type="int" name="IBRION">     2</i>
   <i type="int" name="MDALGO">     0</i>
   <i type="int" name="ISIF">     3</i>
   <i name="PSTRESS">      0.00000000</i>
   <i name="EDIFFG">     -0.00100000</i>
   <i type="int" name="NFREE">     1</i>
   <i name="POTIM">      0.50000000</i>
   <i name="SMASS">     -3.00000000</i>
   <i name="SCALEE">      1.00000000</i>
  </separator>
  <separator name="ionic md" >
   <i name="TEBEG">      0.00010000</i>
   <i name="TEEND">      0.00010000</i>
   <i type="int" name="NBLOCK">     1</i>
   <i type="int" name="KBLOCK">     1</i>
   <i type="int" name="NPACO">   256</i>
   <i name="APACO">     16.00000000</i>
  </separator>
  <separator name="symmetry" >
   <i type="int" name="ISYM">     2</i>
   <i name="SYMPREC">      0.00001000</i>
  </separator>
  <separator name="dos" >
   <i type="int" name="LORBIT">    11</i>
   <v name="RWIGS">     -1.00000000</v>
   <i type="int" name="NEDOS">   301</i>
   <i name="EMIN">     10.00000000</i>
   <i name="EMAX">    -10.00000000</i>
   <i name="EFERMI">      0.00000000</i>
  </separator>
  <separator name="writing" >
   <i type="int" name="NWRITE">     2</i>
   <i type="logical" name="LWAVE"> F  </i>
   <i type="logical" name="LDOWNSAMPLE"> F  </i>
   <i type="logical" name="LCHARG"> T  </i>
   <i type="logical" name="LPARD"> F  </i>
   <i type="logical" name="LVTOT"> T  </i>
   <i type="logical" name="LVHAR"> F  </i>
   <i type="logical" name="LELF"> T  </i>
   <i type="logical" name="LOPTICS"> F  </i>
   <v name="STM">      0.00000000      0.00000000      0.00000000      0.00000000      0.00000000      0.00000000      0.00000000</v>
  </separator>
  <separator name="performance" >
   <i type="int" name="NPAR">     1</i>
   <i type="int" name="NSIM">     4</i>
   <i type="int" name="NBLK">    -1</i>
   <i type="logical" name="LPLANE"> T  </i>
   <i type="logical" name="LSCALAPACK"> F  </i>
   <i type="logical" name="LSCAAWARE"> F  </i>
   <i type="logical" name="LSCALU"> F  </i>
   <i type="logical" name="LASYNC"> F  </i>
   <i type="logical" name="LORBITALREAL"> F  </i>
  </separator>
  <separator name="miscellaneous" >
   <i type="int" name="IDIOT">     3</i>
   <i type="int" name="PHON_NSTRUCT">    -1</i>
   <i type="logical" name="LMUSIC"> F  </i>
   <v name="POMASS">     28.08500000</v>
   <v name="DARWINR">      0.00000000</v>
   <v name="DARWINV">      1.00000000</v>
   <i type="logical" name="LCORR"> T  </i>
  </separator>
  <i type="logical" name="GGA_COMPAT"> T  </i>
  <i type="logical" name="LBERRY"> F  </i>
  <i type="int" name="ICORELEVEL">     0</i>
  <i type="logical" name="LDAU"> F  </i>
  <i type="int" name="I_CONSTRAINED_M">     0</i>
  <separator name="electronic exchange-correlation" >
   <i type="string" name="GGA">--</i>
   <i type="int" name="VOSKOWN">     0</i>
   <i type="logical" name="LHFCALC"> F  </i>
   <i type="string" name="PRECFOCK"></i>
   <i type="logical" name="LSYMGRAD"> F  </i>
   <i type="logical" name="LHFONE"> F  </i>
   <i type="logical" name="LRHFCALC"> F  </i>
   <i type="logical" name="LTHOMAS"> F  </i>
   <i type="logical" name="LMODELHF"> F  </i>
   <i type="logical" name="LFOCKACE"> F  </i>
   <i name="ENCUT4O">     -1.00000000</i>
   <i type="int" name="EXXOEP">     0</i>
   <i type="int" name="FOURORBIT">     0</i>
   <i name="AEXX">      0.00000000</i>
   <i name="HFALPHA">      0.00000000</i>
   <i name="MCALPHA">      0.00000000</i>
   <i name="ALDAX">      1.00000000</i>
   <i name="AGGAX">      1.00000000</i>
   <i name="ALDAC">      1.00000000</i>
   <i name="AGGAC">      1.00000000</i>
   <i type="int" name="NKREDX">     1</i>
   <i type="int" name="NKREDY">     1</i>
   <i type="int" name="NKREDZ">     1</i>
   <i type="logical" name="SHIFTRED"> F  </i>
   <i type="logical" name="ODDONLY"> F  </i>
   <i type="logical" name="EVENONLY"> F  </i>
   <i type="int" name="LMAXFOCK">     0</i>
   <i type="int" name="NMAXFOCKAE">     0</i>
   <i type="logical" name="LFOCKAEDFT"> F  </i>
   <i name="HFSCREEN">      0.00000000</i>
   <i name="HFSCREENC">      0.00000000</i>
   <i type="int" name="NBANDSGWLOW">     0</i>
  </separator>
  <separator name="vdW DFT" >
   <i type="logical" name="LUSE_VDW"> F  </i>
   <i name="Zab_VDW">     -0.84910000</i>
   <i name="PARAM1">      0.12340000</i>
   <i name="PARAM2">      1.00000000</i>
   <i name="PARAM3">      0.00000000</i>
  </separator>
  <separator name="model GW" >
   <i type="int" name="MODEL_GW">     0</i>
   <i name="MODEL_EPS0">     12.39017241</i>
   <i name="MODEL_ALPHA">      1.00000000</i>
  </separator>
  <separator name="linear response parameters" >
   <i type="logical" name="LEPSILON"> F  </i>
   <i type="logical" name="LRPA"> F  </i>
   <i type="logical" name="LNABLA"> F  </i>
   <i type="logical" name="LVEL"> F  </i>
   <i type="int" name="KINTER">     0</i>
   <i name="CSHIFT">      0.10000000</i>
   <i name="OMEGAMAX">     -1.00000000</i>
   <i name="DEG_THRESHOLD">      0.00200000</i>
   <i name="RTIME">     -0.10000000</i>
   <i name="WPLASMAI">      0.00000000</i>
   <v name="DFIELD">      0.00000000      0.00000000      0.00000000</v>
   <v name="WPLASMA">      0.00000000      0.00000000      0.00000000      0.00000000      0.00000000      0.00000000      0.00000000      0.00000000      0.00000000</v>
  </separator>
  <separator name="orbital magnetization" >
   <i type="logical" name="NUCIND"> F  </i>
   <v name="MAGPOS">      0.00000000      0.00000000      0.00000000</v>
   <i type="logical" name="LNICSALL"> T  </i>
   <i type="logical" name="ORBITALMAG"> F  </i>
   <i type="logical" name="LMAGBLOCH"> F  </i>
   <i type="logical" name="LCHIMAG"> F  </i>
   <i type="logical" name="LGAUGE"> T  </i>
   <i type="int" name="MAGATOM">     0</i>
   <v name="MAGDIPOL">      0.00000000      0.00000000      0.00000000</v>
   <v name="AVECCONST">      0.00000000      0.00000000      0.00000000</v>
  </separator>
  <separator name="response functions" >
   <i type="logical" name="LFINITE_TEMPERATURE"> F  </i>
   <i type="logical" name="LADDER"> F  </i>
   <i type="logical" name="LRPAFORCE"> F  </i>
   <i type="logical" name="LFXC"> F  </i>
   <i type="logical" name="LHARTREE"> T  </i>
   <i type="int" name="IBSE">     0</i>
   <v type="int" name="KPOINT">    -1     0     0     0</v>
   <i type="logical" name="LTCTC"> F  </i>
   <i type="logical" name="LTCTE"> F  </i>
   <i type="logical" name="LTETE"> F  </i>
   <i type="logical" name="LTRIPLET"> F  </i>
   <i type="logical" name="LFXCEPS"> F  </i>
   <i type="logical" name="LFXHEG"> F  </i>
   <i type="int" name="NATURALO">     2</i>
   <i type="logical" name="LHOLEGF"> F  </i>
   <i type="logical" name="L2ORDER"> F  </i>
   <i type="logical" name="LDMP1"> F  </i>
   <i type="logical" name="LMP2LT"> F  </i>
   <i type="logical" name="LSMP2LT"> F  </i>
   <i type="logical" name="LGWLF"> F  </i>
   <i name="ENCUTGW">     -2.00000000</i>
   <i name="ENCUTGWSOFT">     -2.00000000</i>
   <i name="ENCUTLF">     -1.00000000</i>
   <i type="logical" name="LESF_SPLINES"> F  </i>
   <i type="int" name="LMAXMP2">    -1</i>
   <i name="SCISSOR">      0.00000000</i>
   <i type="int" name="NOMEGA">     0</i>
   <i type="int" name="NOMEGAR">     0</i>
   <i type="int" name="NBANDSGW">    -1</i>
   <i type="int" name="NBANDSO">    -1</i>
   <i type="int" name="NBANDSV">    -1</i>
   <i type="int" name="NELM">   200</i>
   <i type="int" name="NELMHF">     1</i>
   <i type="int" name="DIM">     3</i>
   <i type="int" name="IESPILON">     4</i>
   <i type="int" name="ANTIRES">     0</i>
   <i name="OMEGAMAX">    -30.00000000</i>
   <i name="OMEGAMIN">    -30.00000000</i>
   <i name="OMEGATL">   -200.00000000</i>
   <i type="int" name="OMEGAGRID">     0</i>
   <i name="CSHIFT">     -0.10000000</i>
   <i type="logical" name="LSELFENERGY"> F  </i>
   <i type="logical" name="LSPECTRAL"> F  </i>
   <i type="logical" name="LSPECTRALGW"> F  </i>
   <i type="logical" name="LSINGLES"> F  </i>
   <i type="logical" name="LFERMIGW"> F  </i>
   <i type="logical" name="ODDONLYGW"> F  </i>
   <i type="logical" name="EVENONLYGW"> F  </i>
   <i type="int" name="NKREDLFX">     1</i>
   <i type="int" name="NKREDLFY">     1</i>
   <i type="int" name="NKREDLFZ">     1</i>
   <i type="int" name="MAXMEM">  2800</i>
   <i type="int" name="TELESCOPE">     0</i>
   <i type="int" name="NTAUPAR">    -1</i>
   <i type="int" name="NOMEGAPAR">    -1</i>
   <i name="DAMP_NEWTON">      0.80000001</i>
   <i name="LAMBDA">      1.00000000</i>
  </separator>
  <separator name="External order field" >
   <i name="OFIELD_KAPPA">      0.00000000</i>
   <v name="OFIELD_K">      0.00000000      0.00000000      0.00000000</v>
   <i name="OFIELD_Q6_NEAR">      0.00000000</i>
   <i name="OFIELD_Q6_FAR">      0.00000000</i>
   <i name="OFIELD_A">      0.00000000</i>
  </separator>
 </parameters>
 <atominfo>
  <atoms>       2 </atoms>
  <types>       1 </types>
  <array name="atoms" >
   <dimension dim="1">ion</dimension>
   <field type="string">element</field>
   <field type="int">atomtype</field>
   <set>
    <rc><c>Si</c><c>   1</c></rc>
    <rc><c>Si</c><c>   1</c></rc>
   </set>
  </array>
  <array name="atomtypes" >
   <dimension dim="1">type</dimension>
   <field type="int">atomspertype</field>
   <field type="string">element</field>
   <field>mass</field>
   <field>valence</field>
   <field type="string">pseudopotential</field>
   <set>
    <rc><c>   2</c><c>Si</c><c>     28.08500000</c><c>      4.00000000</c><c>  PAW_PBE Si 05Jan2001                  </c></rc>
   </set>
  </array>
 </atominfo>
 <structure name="initialpos" >
  <crystal>
   <varray name="basis" >
    <v>       0.00000000       2.75277700       2.75277700 </v>
    <v>       2.72511000       0.00000000       2.75277700 </v>
    <v>       2.72511000       2.75277700       0.00000000 </v>
   </varray>
   <i name="volume">     41.30057472 </i>
   <varray name="rec_basis" >
    <v>      -0.18347883       0.18163476       0.18163476 </v>
    <v>       0.18347883      -0.18163476       0.18163476 </v>
    <v>       0.18347883       0.18163476      -0.18163476 </v>
   </varray>
  </crystal>
  <varray name="positions" >
   <v>       0.75000000       0.75000000       0.75000000 </v>
   <v>       0.50000000       0.50000000       0.50000000 </v>
  </varray>
 </structure>
 <calculation>
  <scstep>
   <time name="dav">    0.35    0.37</time>
   <time name="total">    0.87    0.89</time>
   <energy>
    <i name="alphaZ">      3.26030628 </i>
    <i name="ewald">   -226.19074615 </i>
    <i name="hartreedc">    -11.47494995 </i>
    <i name="XCdc">    -18.72411104 </i>
    <i name="pawpsdc">    176.24759923 </i>
    <i name="pawaedc">   -141.06103558 </i>
    <i name="eentropy">      0.00000000 </i>
    <i name="bandstr">     26.14485227 </i>
    <i name="atom">    206.13324734 </i>
    <i name="e_fr_energy">     14.33516241 </i>
    <i name="e_wo_entrp">     14.33516241 </i>
    <i name="e_0_energy">     14.33516241 </i>
   </energy>
  </scstep>
  <scstep>
   <time name="dav">    0.46    0.47</time>
   <time name="total">    0.46    0.47</time>
   <energy>
    <i name="e_fr_energy">    -10.16159161 </i>
    <i name="e_wo_entrp">    -10.16159161 </i>
    <i name="e_0_energy">    -10.16159161 </i>
   </energy>
  </scstep>
  <scstep>
   <time name="dav">    0.30    0.30</time>
   <time name="total">    0.30    0.30</time>
   <energy>
    <i name="e_fr_energy">    -10.46053704 </i>
    <i name="e_wo_entrp">    -10.46053704 </i>
    <i name="e_0_energy">    -10.46053704 </i>
   </energy>
  </scstep>
  <scstep>
   <time name="dav">    0.49    0.49</time>
   <time name="total">    0.49    0.49</time>
   <energy>
    <i name="e_fr_energy">    -10.46187811 </i>
    <i name="e_wo_entrp">    -10.46187811 </i>
    <i name="e_0_energy">    -10.46187811 </i>
   </energy>
  </scstep>
  <scstep>
   <time name="dav">    0.33    0.33</time>
   <time name="total">    0.38    0.38</time>
   <energy>
    <i name="e_fr_energy">    -10.46187955 </i>
    <i name="e_wo_entrp">    -10.46187955 </i>
    <i name="e_0_energy">    -10.46187955 </i>
   </energy>
  </scstep>
  <scstep>
   <time name="dav">    0.47    0.47</time>
   <time name="total">    1.18    1.18</time>
   <energy>
    <i name="e_fr_energy">    -10.31053869 </i>
    <i name="e_wo_entrp">    -10.31053869 </i>
    <i name="e_0_energy">    -10.31053869 </i>
   </energy>
  </scstep>
  <scstep>
   <time name="dav">    0.36    0.37</time>
   <time name="total">    1.16    1.18</time>
   <energy>
    <i name="e_fr_energy">    -10.24219750 </i>
    <i name="e_wo_entrp">    -10.24219750 </i>
    <i name="e_0_energy">    -10.24219750 </i>
   </energy>
  </scstep>
  <scstep>
   <time name="dav">    0.31    0.31</time>
   <time name="total">    0.91    0.92</time>
   <energy>
    <i name="e_fr_energy">    -10.24462020 </i>
    <i name="e_wo_entrp">    -10.24462020 </i>
    <i name="e_0_energy">    -10.24462020 </i>
   </energy>
  </scstep>
  <scstep>
   <time name="dav">    0.45    0.45</time>
   <time name="total">    1.13    1.13</time>
   <energy>
    <i name="e_fr_energy">    -10.24505586 </i>
    <i name="e_wo_entrp">    -10.24505586 </i>
    <i name="e_0_energy">    -10.24505586 </i>
   </energy>
  </scstep>
  <scstep>
   <time name="dav">    0.34    0.35</time>
   <time name="total">    0.98    0.99</time>
   <energy>
    <i name="e_fr_energy">    -10.24509588 </i>
    <i name="e_wo_entrp">    -10.24509588 </i>
    <i name="e_0_energy">    -10.24509588 </i>
   </energy>
  </scstep>
  <scstep>
   <time name="dav">    0.42    0.42</time>
   <time name="total">    1.02    1.02</time>
   <energy>
    <i name="e_fr_energy">    -10.24510235 </i>
    <i name="e_wo_entrp">    -10.24510235 </i>
    <i name="e_0_energy">    -10.24510235 </i>
   </energy>
  </scstep>
  <scstep>
   <time name="dav">    0.58    0.58</time>
   <time name="total">    1.13    1.14</time>
   <energy>
    <i name="alphaZ">      3.26030628 </i>
    <i name="ewald">   -226.19074615 </i>
    <i name="hartreedc">    -16.08966063 </i>
    <i name="XCdc">    -18.00970320 </i>
    <i name="pawpsdc">    841.75118573 </i>
    <i name="pawaedc">   -806.78116694 </i>
    <i name="eentropy">      0.00000000 </i>
    <i name="bandstr">      5.68143523 </i>
    <i name="atom">    206.13324734 </i>
    <i name="e_fr_energy">    -10.24510233 </i>
    <i name="e_wo_entrp">    -10.24510233 </i>
    <i name="e_0_energy">    -10.24510233 </i>
   </energy>
  </scstep>
  <structure>
   <crystal>
    <varray name="basis" >
     <v>       0.00000000       2.75277700       2.75277700 </v>
     <v>       2.72511000       0.00000000       2.75277700 </v>
     <v>       2.72511000       2.75277700       0.00000000 </v>
    </varray>
    <i name="volume">     41.30057472 </i>
    <varray name="rec_basis" >
     <v>      -0.18347883       0.18163476       0.18163476 </v>
     <v>       0.18347883      -0.18163476       0.18163476 </v>
     <v>       0.18347883       0.18163476      -0.18163476 </v>
    </varray>
   </crystal>
   <varray name="positions" >
    <v>       0.75000000       0.75000000       0.75000000 </v>
    <v>       0.50000000       0.50000000       0.50000000 </v>
   </varray>
  </structure>
  <varray name="forces" >
   <v>       0.00000000      -0.00000000      -0.00000000 </v>
   <v>      -0.00000000       0.00000000       0.00000000 </v>
  </varray>
  <varray name="stress" >
   <v>      15.84260591       0.00000000       0.00000000 </v>
   <v>       0.00000000       5.81232413       0.00000000 </v>
   <v>       0.00000000       0.00000000       5.81232413 </v>
  </varray>
  <energy>
   <i name="e_fr_energy">    -10.24510233 </i>
   <i name="e_wo_entrp">    -10.24510233 </i>
   <i name="e_0_energy">    -10.24510233 </i>
  </energy>
  <time name="totalsc">   13.14   13.26</time>
  <eigenvalues>
   <array>
    <dimension dim="1">band</dimension>
    <dimension dim="2">kpoint</dimension>
    <dimension dim="3">spin</dimension>
    <field>eigene</field>
    <field>occ</field>
    <set>
     <set comment="spin 1">
      <set comment="kpoint 1">
       <r>   -6.1429    1.0000 </r>
       <r>    5.6008    1.0000 </r>
       <r>    5.6008    1.0000 </r>
       <r>    5.6695    1.0000 </r>
       <r>    8.1076    0.0000 </r>
       <r>    8.1458    0.0000 </r>
       <r>    8.1458    0.0000 </r>
       <r>    8.6515    0.0000 </r>
      </set>
      <set comment="kpoint 2">
       <r>   -4.8026    1.0000 </r>
       <r>    0.3650    1.0000 </r>
       <r>    4.5982    1.0000 </r>
       <r>    4.6803    1.0000 </r>
       <r>    7.2617    0.0000 </r>
       <r>    9.0510    0.0000 </r>
       <r>    9.1107    0.0000 </r>
       <r>   13.3481    0.0000 </r>
      </set>
      <set comment="kpoint 3">
       <r>   -4.2962    1.0000 </r>
       <r>    0.6127    1.0000 </r>
       <r>    3.2736    1.0000 </r>
       <r>    3.2873    1.0000 </r>
       <r>    6.3893    0.0000 </r>
       <r>    7.6246    0.0000 </r>
       <r>   12.6390    0.0000 </r>
       <r>   12.8208    0.0000 </r>
      </set>
      <set comment="kpoint 4">
       <r>   -2.9694    1.0000 </r>
       <r>   -1.0911    1.0000 </r>
       <r>    1.3165    1.0000 </r>
       <r>    3.5810    1.0000 </r>
       <r>    7.2112    0.0000 </r>
       <r>   11.4126    0.0000 </r>
       <r>   11.9517    0.0000 </r>
       <r>   12.5227    0.0000 </r>
      </set>
      <set comment="kpoint 5">
       <r>   -4.2660    1.0000 </r>
       <r>    0.6827    1.0000 </r>
       <r>    3.2139    1.0000 </r>
       <r>    3.2139    1.0000 </r>
       <r>    6.3000    0.0000 </r>
       <r>    7.5999    0.0000 </r>
       <r>   12.7385    0.0000 </r>
       <r>   12.7385    0.0000 </r>
      </set>
      <set comment="kpoint 6">
       <r>   -2.9713    1.0000 </r>
       <r>   -1.0446    1.0000 </r>
       <r>    1.3497    1.0000 </r>
       <r>    3.5036    1.0000 </r>
       <r>    7.1236    0.0000 </r>
       <r>   11.2786    0.0000 </r>
       <r>   11.9528    0.0000 </r>
       <r>   12.5736    0.0000 </r>
      </set>
     </set>
     <set comment="spin 2">
      <set comment="kpoint 1">
       <r>   -6.1429    1.0000 </r>
       <r>    5.6008    1.0000 </r>
       <r>    5.6008    1.0000 </r>
       <r>    5.6694    1.0000 </r>
       <r>    8.1076    0.0000 </r>
       <r>    8.1459    0.0000 </r>
       <r>    8.1459    0.0000 </r>
       <r>    8.6515    0.0000 </r>
      </set>
      <set comment="kpoint 2">
       <r>   -4.8026    1.0000 </r>
       <r>    0.3650    1.0000 </r>
       <r>    4.5982    1.0000 </r>
       <r>    4.6803    1.0000 </r>
       <r>    7.2617    0.0000 </r>
       <r>    9.0510    0.0000 </r>
       <r>    9.1107    0.0000 </r>
       <r>   13.3480    0.0000 </r>
      </set>
      <set comment="kpoint 3">
       <r>   -4.2962    1.0000 </r>
       <r>    0.6127    1.0000 </r>
       <r>    3.2737    1.0000 </r>
       <r>    3.2874    1.0000 </r>
       <r>    6.3893    0.0000 </r>
       <r>    7.6246    0.0000 </r>
       <r>   12.6391    0.0000 </r>
       <r>   12.8209    0.0000 </r>
      </set>
      <set comment="kpoint 4">
       <r>   -2.9694    1.0000 </r>
       <r>   -1.0911    1.0000 </r>
       <r>    1.3165    1.0000 </r>
       <r>    3.5810    1.0000 </r>
       <r>    7.2111    0.0000 </r>
       <r>   11.4126    0.0000 </r>
       <r>   11.9517    0.0000 </r>
       <r>   12.5227    0.0000 </r>
      </set>
      <set comment="kpoint 5">
       <r>   -4.2660    1.0000 </r>
       <r>    0.6827    1.0000 </r>
       <r>    3.2140    1.0000 </r>
       <r>    3.2140    1.0000 </r>
       <r>    6.3000    0.0000 </r>
       <r>    7.5999    0.0000 </r>
       <r>   12.7385    0.0000 </r>
       <r>   12.7385    0.0000 </r>
      </set>
      <set comment="kpoint 6">
       <r>   -2.9713    1.0000 </r>
       <r>   -1.0446    1.0000 </r>
       <r>    1.3497    1.0000 </r>
       <r>    3.5036    1.0000 </r>
       <r>    7.1236    0.0000 </r>
       <r>   11.2785    0.0000 </r>
       <r>   11.9528    0.0000 </r>
       <r>   12.5735    0.0000 </r>
      </set>
     </set>
    </set>
   </array>
  </eigenvalues>
  <separator name="orbital magnetization" >
   <v name="MAGDIPOLOUT">      0.00000000      0.00000000      0.00000000</v>
  </separator>
  <dos>
   <i name="efermi">      5.66930823 </i>
   <total>
    <array>
     <dimension dim="1">gridpoints</dimension>
     <dimension dim="2">spin</dimension>
     <field>energy</field>
     <field>total</field>
     <field>integrated</field>
     <set>
      <set comment="spin 1">
       <r>    -7.1174     0.0000     0.0000 </r>
       <r>    -7.0459     0.0000     0.0000 </r>
       <r>    -6.9745     0.0000     0.0000 </r>
       <r>    -6.9030     0.0000     0.0000 </r>
       <r>    -6.8315     0.0000     0.0000 </r>
       <r>    -6.7601     0.0000     0.0000 </r>
       <r>    -6.6886     0.0000     0.0000 </r>
       <r>    -6.6171     0.0000     0.0000 </r>
       <r>    -6.5457     0.0000     0.0000 </r>
       <r>    -6.4742     0.0000     0.0000 </r>
       <r>    -6.4027     0.0000     0.0000 </r>
       <r>    -6.3313     0.0000     0.0000 </r>
       <r>    -6.2598     0.0000     0.0000 </r>
       <r>    -6.1883     0.0000     0.0000 </r>
       <r>    -6.1169     0.0001     0.0000 </r>
       <r>    -6.0454     0.0013     0.0000 </r>
       <r>    -5.9739     0.0038     0.0002 </r>
       <r>    -5.9025     0.0077     0.0006 </r>
       <r>    -5.8310     0.0130     0.0013 </r>
       <r>    -5.7595     0.0196     0.0025 </r>
       <r>    -5.6881     0.0276     0.0042 </r>
       <r>    -5.6166     0.0369     0.0065 </r>
       <r>    -5.5451     0.0476     0.0095 </r>
       <r>    -5.4737     0.0597     0.0133 </r>
       <r>    -5.4022     0.0731     0.0180 </r>
       <r>    -5.3307     0.0879     0.0238 </r>
       <r>    -5.2593     0.1041     0.0306 </r>
       <r>    -5.1878     0.1216     0.0387 </r>
       <r>    -5.1163     0.1404     0.0481 </r>
       <r>    -5.0449     0.1607     0.0588 </r>
       <r>    -4.9734     0.1823     0.0711 </r>
       <r>    -4.9019     0.2052     0.0849 </r>
       <r>    -4.8305     0.2295     0.1004 </r>
       <r>    -4.7590     0.2516     0.1177 </r>
       <r>    -4.6875     0.2726     0.1364 </r>
       <r>    -4.6161     0.2945     0.1566 </r>
       <r>    -4.5446     0.3175     0.1785 </r>
       <r>    -4.4731     0.3415     0.2020 </r>
       <r>    -4.4017     0.3665     0.2273 </r>
       <r>    -4.3302     0.3925     0.2544 </r>
       <r>    -4.2587     0.4259     0.2836 </r>
       <r>    -4.1873     0.4667     0.3155 </r>
       <r>    -4.1158     0.5022     0.3502 </r>
       <r>    -4.0443     0.5322     0.3871 </r>
       <r>    -3.9729     0.5569     0.4261 </r>
       <r>    -3.9014     0.5762     0.4666 </r>
       <r>    -3.8299     0.5902     0.5083 </r>
       <r>    -3.7585     0.5988     0.5509 </r>
       <r>    -3.6870     0.6021     0.5938 </r>
       <r>    -3.6155     0.5999     0.6368 </r>
       <r>    -3.5441     0.5925     0.6794 </r>
       <r>    -3.4726     0.5796     0.7213 </r>
       <r>    -3.4011     0.5614     0.7621 </r>
       <r>    -3.3297     0.5378     0.8014 </r>
       <r>    -3.2582     0.5089     0.8389 </r>
       <r>    -3.1867     0.4746     0.8741 </r>
       <r>    -3.1153     0.4349     0.9066 </r>
       <r>    -3.0438     0.3899     0.9361 </r>
       <r>    -2.9723     0.3395     0.9622 </r>
       <r>    -2.9009     0.5182     1.0000 </r>
       <r>    -2.8294     0.0000     1.0000 </r>
       <r>    -2.7579     0.0000     1.0000 </r>
       <r>    -2.6865     0.0000     1.0000 </r>
       <r>    -2.6150     0.0000     1.0000 </r>
       <r>    -2.5435     0.0000     1.0000 </r>
       <r>    -2.4721     0.0000     1.0000 </r>
       <r>    -2.4006     0.0000     1.0000 </r>
       <r>    -2.3291     0.0000     1.0000 </r>
       <r>    -2.2577     0.0000     1.0000 </r>
       <r>    -2.1862     0.0000     1.0000 </r>
       <r>    -2.1147     0.0000     1.0000 </r>
       <r>    -2.0433     0.0000     1.0000 </r>
       <r>    -1.9718     0.0000     1.0000 </r>
       <r>    -1.9003     0.0000     1.0000 </r>
       <r>    -1.8289     0.0000     1.0000 </r>
       <r>    -1.7574     0.0000     1.0000 </r>
       <r>    -1.6859     0.0000     1.0000 </r>
       <r>    -1.6145     0.0000     1.0000 </r>
       <r>    -1.5430     0.0000     1.0000 </r>
       <r>    -1.4715     0.0000     1.0000 </r>
       <r>    -1.4001     0.0000     1.0000 </r>
       <r>    -1.3286     0.0000     1.0000 </r>
       <r>    -1.2571     0.0000     1.0000 </r>
       <r>    -1.1857     0.0000     1.0000 </r>
       <r>    -1.1142     0.0000     1.0000 </r>
       <r>    -1.0427     0.8097     1.0463 </r>
       <r>    -0.9713     0.3565     1.0694 </r>
       <r>    -0.8998     0.4152     1.0971 </r>
       <r>    -0.8283     0.4674     1.1286 </r>
       <r>    -0.7569     0.5131     1.1637 </r>
       <r>    -0.6854     0.5523     1.2018 </r>
       <r>    -0.6139     0.5851     1.2425 </r>
       <r>    -0.5425     0.6114     1.2853 </r>
       <r>    -0.4710     0.6313     1.3297 </r>
       <r>    -0.3995     0.6446     1.3754 </r>
       <r>    -0.3281     0.6515     1.4217 </r>
       <r>    -0.2566     0.6520     1.4683 </r>
       <r>    -0.1851     0.6459     1.5148 </r>
       <r>    -0.1137     0.6334     1.5605 </r>
       <r>    -0.0422     0.6144     1.6051 </r>
       <r>     0.0293     0.5890     1.6482 </r>
       <r>     0.1007     0.5571     1.6892 </r>
       <r>     0.1722     0.5187     1.7277 </r>
       <r>     0.2437     0.4739     1.7632 </r>
       <r>     0.3151     0.4225     1.7952 </r>
       <r>     0.3866     0.3398     1.8231 </r>
       <r>     0.4581     0.2209     1.8429 </r>
       <r>     0.5295     0.1386     1.8556 </r>
       <r>     0.6010     0.0928     1.8636 </r>
       <r>     0.6725     0.0799     1.8697 </r>
       <r>     0.7439     0.0770     1.8753 </r>
       <r>     0.8154     0.0748     1.8807 </r>
       <r>     0.8869     0.0726     1.8860 </r>
       <r>     0.9583     0.0704     1.8911 </r>
       <r>     1.0298     0.0682     1.8960 </r>
       <r>     1.1013     0.0661     1.9008 </r>
       <r>     1.1727     0.0640     1.9055 </r>
       <r>     1.2442     0.0620     1.9100 </r>
       <r>     1.3157     0.0600     1.9143 </r>
       <r>     1.3871     0.8212     1.9698 </r>
       <r>     1.4586     0.3169     1.9919 </r>
       <r>     1.5301     0.3297     2.0150 </r>
       <r>     1.6015     0.3413     2.0390 </r>
       <r>     1.6730     0.3516     2.0638 </r>
       <r>     1.7445     0.3608     2.0892 </r>
       <r>     1.8159     0.3688     2.1153 </r>
       <r>     1.8874     0.3756     2.1419 </r>
       <r>     1.9589     0.3812     2.1690 </r>
       <r>     2.0303     0.3856     2.1964 </r>
       <r>     2.1018     0.3888     2.2241 </r>
       <r>     2.1733     0.3908     2.2519 </r>
       <r>     2.2447     0.3916     2.2799 </r>
       <r>     2.3162     0.3912     2.3079 </r>
       <r>     2.3877     0.3896     2.3358 </r>
       <r>     2.4591     0.3868     2.3635 </r>
       <r>     2.5306     0.3828     2.3910 </r>
       <r>     2.6021     0.3777     2.4182 </r>
       <r>     2.6735     0.3713     2.4450 </r>
       <r>     2.7450     0.3637     2.4713 </r>
       <r>     2.8165     0.3550     2.4969 </r>
       <r>     2.8879     0.3450     2.5220 </r>
       <r>     2.9594     0.3338     2.5462 </r>
       <r>     3.0309     0.3215     2.5697 </r>
       <r>     3.1023     0.3079     2.5922 </r>
       <r>     3.1738     0.2932     2.6136 </r>
       <r>     3.2453     0.3348     2.6349 </r>
       <r>     3.3167     0.5674     2.6648 </r>
       <r>     3.3882     1.0282     2.7212 </r>
       <r>     3.4597     1.5855     2.8140 </r>
       <r>     3.5311     2.3097     2.9524 </r>
       <r>     3.6026     1.1158     3.0866 </r>
       <r>     3.6741     0.9374     3.1539 </r>
       <r>     3.7456     0.9273     3.2205 </r>
       <r>     3.8170     0.9126     3.2863 </r>
       <r>     3.8885     0.8934     3.3509 </r>
       <r>     3.9600     0.8696     3.4139 </r>
       <r>     4.0314     0.8413     3.4750 </r>
       <r>     4.1029     0.8085     3.5340 </r>
       <r>     4.1744     0.7711     3.5905 </r>
       <r>     4.2458     0.7292     3.6441 </r>
       <r>     4.3173     0.6828     3.6946 </r>
       <r>     4.3888     0.6318     3.7416 </r>
       <r>     4.4602     0.5763     3.7848 </r>
       <r>     4.5317     0.5162     3.8239 </r>
       <r>     4.6032     0.4498     3.8585 </r>
       <r>     4.6746     0.3548     3.8873 </r>
       <r>     4.7461     0.3010     3.9106 </r>
       <r>     4.8176     0.2546     3.9304 </r>
       <r>     4.8890     0.2121     3.9470 </r>
       <r>     4.9605     0.1735     3.9608 </r>
       <r>     5.0320     0.1387     3.9719 </r>
       <r>     5.1034     0.1079     3.9807 </r>
       <r>     5.1749     0.0809     3.9875 </r>
       <r>     5.2464     0.0579     3.9924 </r>
       <r>     5.3178     0.0387     3.9958 </r>
       <r>     5.3893     0.0234     3.9980 </r>
       <r>     5.4608     0.0120     3.9993 </r>
       <r>     5.5322     0.0045     3.9998 </r>
       <r>     5.6037     0.0008     4.0000 </r>
       <r>     5.6752     0.0000     4.0000 </r>
       <r>     5.7466     0.0000     4.0000 </r>
       <r>     5.8181     0.0000     4.0000 </r>
       <r>     5.8896     0.0000     4.0000 </r>
       <r>     5.9610     0.0000     4.0000 </r>
       <r>     6.0325     0.0000     4.0000 </r>
       <r>     6.1040     0.0000     4.0000 </r>
       <r>     6.1754     0.0000     4.0000 </r>
       <r>     6.2469     0.0000     4.0000 </r>
       <r>     6.3184     0.0042     4.0000 </r>
       <r>     6.3898     0.0251     4.0010 </r>
       <r>     6.4613     0.0932     4.0051 </r>
       <r>     6.5328     0.1865     4.0150 </r>
       <r>     6.6042     0.3052     4.0324 </r>
       <r>     6.6757     0.4491     4.0592 </r>
       <r>     6.7472     0.6183     4.0972 </r>
       <r>     6.8186     0.8128     4.1482 </r>
       <r>     6.8901     1.0326     4.2140 </r>
       <r>     6.9616     1.2777     4.2964 </r>
       <r>     7.0330     1.5480     4.3972 </r>
       <r>     7.1045     1.8437     4.5182 </r>
       <r>     7.1760     2.6378     4.6766 </r>
       <r>     7.2474     2.8220     4.9059 </r>
       <r>     7.3189     0.2212     4.9419 </r>
       <r>     7.3904     0.1829     4.9563 </r>
       <r>     7.4618     0.1483     4.9681 </r>
       <r>     7.5333     0.1173     4.9776 </r>
       <r>     7.6048     0.0900     4.9849 </r>
       <r>     7.6762     0.0699     4.9906 </r>
       <r>     7.7477     0.0590     4.9951 </r>
       <r>     7.8192     0.0569     4.9992 </r>
       <r>     7.8906     0.0637     5.0035 </r>
       <r>     7.9621     0.0793     5.0086 </r>
       <r>     8.0336     0.1038     5.0150 </r>
       <r>     8.1050     0.1371     5.0236 </r>
       <r>     8.1765     0.1767     5.0348 </r>
       <r>     8.2480     0.2136     5.0488 </r>
       <r>     8.3194     0.2463     5.0652 </r>
       <r>     8.3909     0.2749     5.0839 </r>
       <r>     8.4624     0.2993     5.1044 </r>
       <r>     8.5338     0.3195     5.1266 </r>
       <r>     8.6053     0.3355     5.1500 </r>
       <r>     8.6768     0.3473     5.1744 </r>
       <r>     8.7482     0.3550     5.1995 </r>
       <r>     8.8197     0.3585     5.2251 </r>
       <r>     8.8912     0.3580     5.2507 </r>
       <r>     8.9626     0.3532     5.2761 </r>
       <r>     9.0341     0.3444     5.3011 </r>
       <r>     9.1056     0.3644     5.3261 </r>
       <r>     9.1770     0.3893     5.3531 </r>
       <r>     9.2485     0.4125     5.3817 </r>
       <r>     9.3200     0.4343     5.4120 </r>
       <r>     9.3914     0.4545     5.4438 </r>
       <r>     9.4629     0.4733     5.4769 </r>
       <r>     9.5344     0.4907     5.5114 </r>
       <r>     9.6058     0.5065     5.5470 </r>
       <r>     9.6773     0.5209     5.5838 </r>
       <r>     9.7488     0.5338     5.6215 </r>
       <r>     9.8202     0.5452     5.6600 </r>
       <r>     9.8917     0.5552     5.6994 </r>
       <r>     9.9632     0.5637     5.7393 </r>
       <r>    10.0346     0.5707     5.7799 </r>
       <r>    10.1061     0.5763     5.8209 </r>
       <r>    10.1776     0.5804     5.8622 </r>
       <r>    10.2490     0.5830     5.9038 </r>
       <r>    10.3205     0.5841     5.9455 </r>
       <r>    10.3920     0.5838     5.9873 </r>
       <r>    10.4634     0.5820     6.0289 </r>
       <r>    10.5349     0.5787     6.0704 </r>
       <r>    10.6064     0.5740     6.1116 </r>
       <r>    10.6778     0.5677     6.1524 </r>
       <r>    10.7493     0.5601     6.1927 </r>
       <r>    10.8208     0.5509     6.2324 </r>
       <r>    10.8922     0.5403     6.2714 </r>
       <r>    10.9637     0.5282     6.3096 </r>
       <r>    11.0352     0.5146     6.3469 </r>
       <r>    11.1066     0.4996     6.3831 </r>
       <r>    11.1781     0.4831     6.4183 </r>
       <r>    11.2496     0.4651     6.4522 </r>
       <r>    11.3210     0.6613     6.4901 </r>
       <r>    11.3925     0.5100     6.5356 </r>
       <r>    11.4640     0.4911     6.5730 </r>
       <r>    11.5354     0.3210     6.5959 </r>
       <r>    11.6069     0.3234     6.6189 </r>
       <r>    11.6784     0.3256     6.6421 </r>
       <r>    11.7498     0.3276     6.6654 </r>
       <r>    11.8213     0.3293     6.6889 </r>
       <r>    11.8928     0.3308     6.7125 </r>
       <r>    11.9642     1.4501     6.7807 </r>
       <r>    12.0357     0.8204     6.8433 </r>
       <r>    12.1072     0.7145     6.8981 </r>
       <r>    12.1786     0.6142     6.9455 </r>
       <r>    12.2501     0.5195     6.9860 </r>
       <r>    12.3216     0.4304     7.0199 </r>
       <r>    12.3930     0.3470     7.0476 </r>
       <r>    12.4645     0.2692     7.0696 </r>
       <r>    12.5360     1.7426     7.1114 </r>
       <r>    12.6074     2.0531     7.2580 </r>
       <r>    12.6789     1.8704     7.3997 </r>
       <r>    12.7504     1.4658     7.5187 </r>
       <r>    12.8218     1.2201     7.6152 </r>
       <r>    12.8933     1.1397     7.6997 </r>
       <r>    12.9648     1.0325     7.7775 </r>
       <r>    13.0362     0.8985     7.8466 </r>
       <r>    13.1077     0.7377     7.9053 </r>
       <r>    13.1792     0.5501     7.9514 </r>
       <r>    13.2506     0.3356     7.9832 </r>
       <r>    13.3221     0.0944     7.9988 </r>
       <r>    13.3936     0.0000     8.0000 </r>
       <r>    13.4650     0.0000     8.0000 </r>
       <r>    13.5365     0.0000     8.0000 </r>
       <r>    13.6080     0.0000     8.0000 </r>
       <r>    13.6794     0.0000     8.0000 </r>
       <r>    13.7509     0.0000     8.0000 </r>
       <r>    13.8224     0.0000     8.0000 </r>
       <r>    13.8938     0.0000     8.0000 </r>
       <r>    13.9653     0.0000     8.0000 </r>
       <r>    14.0368     0.0000     8.0000 </r>
       <r>    14.1082     0.0000     8.0000 </r>
       <r>    14.1797     0.0000     8.0000 </r>
       <r>    14.2512     0.0000     8.0000 </r>
       <r>    14.3226     0.0000     8.0000 </r>
      </set>
      <set comment="spin 2">
       <r>    -7.1174     0.0000     0.0000 </r>
       <r>    -7.0459     0.0000     0.0000 </r>
       <r>    -6.9745     0.0000     0.0000 </r>
       <r>    -6.9030     0.0000     0.0000 </r>
       <r>    -6.8315     0.0000     0.0000 </r>
       <r>    -6.7601     0.0000     0.0000 </r>
       <r>    -6.6886     0.0000     0.0000 </r>
       <r>    -6.6171     0.0000     0.0000 </r>
       <r>    -6.5457     0.0000     0.0000 </r>
       <r>    -6.4742     0.0000     0.0000 </r>
       <r>    -6.4027     0.0000     0.0000 </r>
       <r>    -6.3313     0.0000     0.0000 </r>
       <r>    -6.2598     0.0000     0.0000 </r>
       <r>    -6.1883     0.0000     0.0000 </r>
       <r>    -6.1169     0.0001     0.0000 </r>
       <r>    -6.0454     0.0013     0.0000 </r>
       <r>    -5.9739     0.0038     0.0002 </r>
       <r>    -5.9025     0.0077     0.0006 </r>
       <r>    -5.8310     0.0130     0.0013 </r>
       <r>    -5.7595     0.0196     0.0025 </r>
       <r>    -5.6881     0.0276     0.0042 </r>
       <r>    -5.6166     0.0369     0.0065 </r>
       <r>    -5.5451     0.0476     0.0095 </r>
       <r>    -5.4737     0.0597     0.0133 </r>
       <r>    -5.4022     0.0731     0.0180 </r>
       <r>    -5.3307     0.0879     0.0238 </r>
       <r>    -5.2593     0.1040     0.0306 </r>
       <r>    -5.1878     0.1216     0.0387 </r>
       <r>    -5.1163     0.1404     0.0481 </r>
       <r>    -5.0449     0.1607     0.0588 </r>
       <r>    -4.9734     0.1823     0.0711 </r>
       <r>    -4.9019     0.2052     0.0849 </r>
       <r>    -4.8305     0.2295     0.1004 </r>
       <r>    -4.7590     0.2516     0.1177 </r>
       <r>    -4.6875     0.2726     0.1364 </r>
       <r>    -4.6161     0.2945     0.1566 </r>
       <r>    -4.5446     0.3175     0.1785 </r>
       <r>    -4.4731     0.3414     0.2020 </r>
       <r>    -4.4017     0.3665     0.2273 </r>
       <r>    -4.3302     0.3925     0.2544 </r>
       <r>    -4.2587     0.4259     0.2836 </r>
       <r>    -4.1873     0.4667     0.3155 </r>
       <r>    -4.1158     0.5021     0.3501 </r>
       <r>    -4.0443     0.5322     0.3871 </r>
       <r>    -3.9729     0.5569     0.4261 </r>
       <r>    -3.9014     0.5762     0.4666 </r>
       <r>    -3.8299     0.5902     0.5083 </r>
       <r>    -3.7585     0.5988     0.5508 </r>
       <r>    -3.6870     0.6021     0.5938 </r>
       <r>    -3.6155     0.5999     0.6368 </r>
       <r>    -3.5441     0.5925     0.6794 </r>
       <r>    -3.4726     0.5796     0.7213 </r>
       <r>    -3.4011     0.5614     0.7621 </r>
       <r>    -3.3297     0.5378     0.8014 </r>
       <r>    -3.2582     0.5089     0.8389 </r>
       <r>    -3.1867     0.4746     0.8741 </r>
       <r>    -3.1153     0.4349     0.9066 </r>
       <r>    -3.0438     0.3899     0.9361 </r>
       <r>    -2.9723     0.3395     0.9622 </r>
       <r>    -2.9009     0.5182     1.0000 </r>
       <r>    -2.8294     0.0000     1.0000 </r>
       <r>    -2.7579     0.0000     1.0000 </r>
       <r>    -2.6865     0.0000     1.0000 </r>
       <r>    -2.6150     0.0000     1.0000 </r>
       <r>    -2.5435     0.0000     1.0000 </r>
       <r>    -2.4721     0.0000     1.0000 </r>
       <r>    -2.4006     0.0000     1.0000 </r>
       <r>    -2.3291     0.0000     1.0000 </r>
       <r>    -2.2577     0.0000     1.0000 </r>
       <r>    -2.1862     0.0000     1.0000 </r>
       <r>    -2.1147     0.0000     1.0000 </r>
       <r>    -2.0433     0.0000     1.0000 </r>
       <r>    -1.9718     0.0000     1.0000 </r>
       <r>    -1.9003     0.0000     1.0000 </r>
       <r>    -1.8289     0.0000     1.0000 </r>
       <r>    -1.7574     0.0000     1.0000 </r>
       <r>    -1.6859     0.0000     1.0000 </r>
       <r>    -1.6145     0.0000     1.0000 </r>
       <r>    -1.5430     0.0000     1.0000 </r>
       <r>    -1.4715     0.0000     1.0000 </r>
       <r>    -1.4001     0.0000     1.0000 </r>
       <r>    -1.3286     0.0000     1.0000 </r>
       <r>    -1.2571     0.0000     1.0000 </r>
       <r>    -1.1857     0.0000     1.0000 </r>
       <r>    -1.1142     0.0000     1.0000 </r>
       <r>    -1.0427     0.8097     1.0463 </r>
       <r>    -0.9713     0.3565     1.0694 </r>
       <r>    -0.8998     0.4152     1.0971 </r>
       <r>    -0.8283     0.4674     1.1286 </r>
       <r>    -0.7569     0.5131     1.1637 </r>
       <r>    -0.6854     0.5523     1.2018 </r>
       <r>    -0.6139     0.5851     1.2425 </r>
       <r>    -0.5425     0.6114     1.2853 </r>
       <r>    -0.4710     0.6313     1.3297 </r>
       <r>    -0.3995     0.6446     1.3754 </r>
       <r>    -0.3281     0.6515     1.4217 </r>
       <r>    -0.2566     0.6520     1.4683 </r>
       <r>    -0.1851     0.6459     1.5148 </r>
       <r>    -0.1137     0.6334     1.5605 </r>
       <r>    -0.0422     0.6144     1.6051 </r>
       <r>     0.0293     0.5890     1.6482 </r>
       <r>     0.1007     0.5571     1.6892 </r>
       <r>     0.1722     0.5187     1.7277 </r>
       <r>     0.2437     0.4739     1.7632 </r>
       <r>     0.3151     0.4225     1.7952 </r>
       <r>     0.3866     0.3398     1.8231 </r>
       <r>     0.4581     0.2209     1.8429 </r>
       <r>     0.5295     0.1386     1.8556 </r>
       <r>     0.6010     0.0928     1.8636 </r>
       <r>     0.6725     0.0799     1.8697 </r>
       <r>     0.7439     0.0770     1.8753 </r>
       <r>     0.8154     0.0748     1.8807 </r>
       <r>     0.8869     0.0726     1.8860 </r>
       <r>     0.9583     0.0704     1.8911 </r>
       <r>     1.0298     0.0682     1.8960 </r>
       <r>     1.1013     0.0661     1.9008 </r>
       <r>     1.1727     0.0640     1.9055 </r>
       <r>     1.2442     0.0620     1.9100 </r>
       <r>     1.3157     0.0600     1.9143 </r>
       <r>     1.3871     0.8212     1.9698 </r>
       <r>     1.4586     0.3169     1.9919 </r>
       <r>     1.5301     0.3297     2.0150 </r>
       <r>     1.6015     0.3413     2.0390 </r>
       <r>     1.6730     0.3516     2.0638 </r>
       <r>     1.7445     0.3608     2.0892 </r>
       <r>     1.8159     0.3688     2.1153 </r>
       <r>     1.8874     0.3756     2.1419 </r>
       <r>     1.9589     0.3812     2.1690 </r>
       <r>     2.0303     0.3856     2.1964 </r>
       <r>     2.1018     0.3888     2.2241 </r>
       <r>     2.1733     0.3908     2.2519 </r>
       <r>     2.2447     0.3916     2.2799 </r>
       <r>     2.3162     0.3912     2.3079 </r>
       <r>     2.3877     0.3896     2.3358 </r>
       <r>     2.4591     0.3868     2.3635 </r>
       <r>     2.5306     0.3828     2.3910 </r>
       <r>     2.6021     0.3777     2.4182 </r>
       <r>     2.6735     0.3713     2.4450 </r>
       <r>     2.7450     0.3637     2.4713 </r>
       <r>     2.8165     0.3550     2.4969 </r>
       <r>     2.8879     0.3450     2.5220 </r>
       <r>     2.9594     0.3338     2.5462 </r>
       <r>     3.0309     0.3215     2.5697 </r>
       <r>     3.1023     0.3079     2.5922 </r>
       <r>     3.1738     0.2932     2.6136 </r>
       <r>     3.2453     0.3348     2.6349 </r>
       <r>     3.3167     0.5674     2.6647 </r>
       <r>     3.3882     1.0281     2.7212 </r>
       <r>     3.4597     1.5855     2.8140 </r>
       <r>     3.5311     2.3097     2.9524 </r>
       <r>     3.6026     1.1158     3.0866 </r>
       <r>     3.6741     0.9374     3.1539 </r>
       <r>     3.7456     0.9273     3.2205 </r>
       <r>     3.8170     0.9126     3.2863 </r>
       <r>     3.8885     0.8934     3.3509 </r>
       <r>     3.9600     0.8696     3.4139 </r>
       <r>     4.0314     0.8413     3.4750 </r>
       <r>     4.1029     0.8085     3.5340 </r>
       <r>     4.1744     0.7711     3.5905 </r>
       <r>     4.2458     0.7292     3.6441 </r>
       <r>     4.3173     0.6828     3.6946 </r>
       <r>     4.3888     0.6318     3.7416 </r>
       <r>     4.4602     0.5763     3.7848 </r>
       <r>     4.5317     0.5163     3.8239 </r>
       <r>     4.6032     0.4498     3.8585 </r>
       <r>     4.6746     0.3548     3.8873 </r>
       <r>     4.7461     0.3010     3.9106 </r>
       <r>     4.8176     0.2546     3.9304 </r>
       <r>     4.8890     0.2121     3.9470 </r>
       <r>     4.9605     0.1735     3.9608 </r>
       <r>     5.0320     0.1387     3.9719 </r>
       <r>     5.1034     0.1079     3.9807 </r>
       <r>     5.1749     0.0809     3.9875 </r>
       <r>     5.2464     0.0579     3.9924 </r>
       <r>     5.3178     0.0387     3.9958 </r>
       <r>     5.3893     0.0234     3.9980 </r>
       <r>     5.4608     0.0120     3.9993 </r>
       <r>     5.5322     0.0045     3.9998 </r>
       <r>     5.6037     0.0008     4.0000 </r>
       <r>     5.6752     0.0000     4.0000 </r>
       <r>     5.7466     0.0000     4.0000 </r>
       <r>     5.8181     0.0000     4.0000 </r>
       <r>     5.8896     0.0000     4.0000 </r>
       <r>     5.9610     0.0000     4.0000 </r>
       <r>     6.0325     0.0000     4.0000 </r>
       <r>     6.1040     0.0000     4.0000 </r>
       <r>     6.1754     0.0000     4.0000 </r>
       <r>     6.2469     0.0000     4.0000 </r>
       <r>     6.3184     0.0042     4.0000 </r>
       <r>     6.3898     0.0251     4.0010 </r>
       <r>     6.4613     0.0932     4.0051 </r>
       <r>     6.5328     0.1866     4.0150 </r>
       <r>     6.6042     0.3052     4.0324 </r>
       <r>     6.6757     0.4491     4.0592 </r>
       <r>     6.7472     0.6184     4.0972 </r>
       <r>     6.8186     0.8129     4.1482 </r>
       <r>     6.8901     1.0327     4.2140 </r>
       <r>     6.9616     1.2777     4.2964 </r>
       <r>     7.0330     1.5481     4.3972 </r>
       <r>     7.1045     1.8437     4.5183 </r>
       <r>     7.1760     2.6379     4.6767 </r>
       <r>     7.2474     2.8208     4.9059 </r>
       <r>     7.3189     0.2212     4.9419 </r>
       <r>     7.3904     0.1829     4.9563 </r>
       <r>     7.4618     0.1483     4.9681 </r>
       <r>     7.5333     0.1173     4.9775 </r>
       <r>     7.6048     0.0900     4.9849 </r>
       <r>     7.6762     0.0699     4.9906 </r>
       <r>     7.7477     0.0590     4.9951 </r>
       <r>     7.8192     0.0570     4.9992 </r>
       <r>     7.8906     0.0637     5.0035 </r>
       <r>     7.9621     0.0793     5.0086 </r>
       <r>     8.0336     0.1038     5.0150 </r>
       <r>     8.1050     0.1371     5.0236 </r>
       <r>     8.1765     0.1767     5.0348 </r>
       <r>     8.2480     0.2136     5.0488 </r>
       <r>     8.3194     0.2463     5.0652 </r>
       <r>     8.3909     0.2749     5.0839 </r>
       <r>     8.4624     0.2993     5.1044 </r>
       <r>     8.5338     0.3195     5.1266 </r>
       <r>     8.6053     0.3355     5.1500 </r>
       <r>     8.6768     0.3473     5.1744 </r>
       <r>     8.7482     0.3550     5.1995 </r>
       <r>     8.8197     0.3585     5.2250 </r>
       <r>     8.8912     0.3580     5.2507 </r>
       <r>     8.9626     0.3532     5.2761 </r>
       <r>     9.0341     0.3444     5.3011 </r>
       <r>     9.1056     0.3644     5.3261 </r>
       <r>     9.1770     0.3893     5.3531 </r>
       <r>     9.2485     0.4125     5.3817 </r>
       <r>     9.3200     0.4343     5.4120 </r>
       <r>     9.3914     0.4545     5.4438 </r>
       <r>     9.4629     0.4733     5.4769 </r>
       <r>     9.5344     0.4907     5.5114 </r>
       <r>     9.6058     0.5065     5.5470 </r>
       <r>     9.6773     0.5209     5.5838 </r>
       <r>     9.7488     0.5338     5.6215 </r>
       <r>     9.8202     0.5452     5.6600 </r>
       <r>     9.8917     0.5552     5.6994 </r>
       <r>     9.9632     0.5637     5.7393 </r>
       <r>    10.0346     0.5707     5.7799 </r>
       <r>    10.1061     0.5763     5.8209 </r>
       <r>    10.1776     0.5804     5.8622 </r>
       <r>    10.2490     0.5830     5.9038 </r>
       <r>    10.3205     0.5841     5.9455 </r>
       <r>    10.3920     0.5838     5.9873 </r>
       <r>    10.4634     0.5820     6.0289 </r>
       <r>    10.5349     0.5787     6.0704 </r>
       <r>    10.6064     0.5740     6.1116 </r>
       <r>    10.6778     0.5677     6.1524 </r>
       <r>    10.7493     0.5601     6.1927 </r>
       <r>    10.8208     0.5509     6.2324 </r>
       <r>    10.8922     0.5403     6.2714 </r>
       <r>    10.9637     0.5282     6.3096 </r>
       <r>    11.0352     0.5146     6.3469 </r>
       <r>    11.1066     0.4996     6.3831 </r>
       <r>    11.1781     0.4831     6.4183 </r>
       <r>    11.2496     0.4651     6.4521 </r>
       <r>    11.3210     0.6614     6.4901 </r>
       <r>    11.3925     0.5097     6.5356 </r>
       <r>    11.4640     0.4911     6.5730 </r>
       <r>    11.5354     0.3210     6.5959 </r>
       <r>    11.6069     0.3234     6.6189 </r>
       <r>    11.6784     0.3256     6.6421 </r>
       <r>    11.7498     0.3276     6.6654 </r>
       <r>    11.8213     0.3293     6.6889 </r>
       <r>    11.8928     0.3308     6.7125 </r>
       <r>    11.9642     1.4502     6.7806 </r>
       <r>    12.0357     0.8204     6.8432 </r>
       <r>    12.1072     0.7145     6.8980 </r>
       <r>    12.1786     0.6142     6.9455 </r>
       <r>    12.2501     0.5195     6.9860 </r>
       <r>    12.3216     0.4305     7.0199 </r>
       <r>    12.3930     0.3470     7.0476 </r>
       <r>    12.4645     0.2692     7.0696 </r>
       <r>    12.5360     1.7430     7.1114 </r>
       <r>    12.6074     2.0530     7.2580 </r>
       <r>    12.6789     1.8704     7.3997 </r>
       <r>    12.7504     1.4659     7.5187 </r>
       <r>    12.8218     1.2201     7.6152 </r>
       <r>    12.8933     1.1398     7.6997 </r>
       <r>    12.9648     1.0326     7.7775 </r>
       <r>    13.0362     0.8985     7.8467 </r>
       <r>    13.1077     0.7377     7.9053 </r>
       <r>    13.1792     0.5500     7.9515 </r>
       <r>    13.2506     0.3355     7.9833 </r>
       <r>    13.3221     0.0942     7.9988 </r>
       <r>    13.3936     0.0000     8.0000 </r>
       <r>    13.4650     0.0000     8.0000 </r>
       <r>    13.5365     0.0000     8.0000 </r>
       <r>    13.6080     0.0000     8.0000 </r>
       <r>    13.6794     0.0000     8.0000 </r>
       <r>    13.7509     0.0000     8.0000 </r>
       <r>    13.8224     0.0000     8.0000 </r>
       <r>    13.8938     0.0000     8.0000 </r>
       <r>    13.9653     0.0000     8.0000 </r>
       <r>    14.0368     0.0000     8.0000 </r>
       <r>    14.1082     0.0000     8.0000 </r>
       <r>    14.1797     0.0000     8.0000 </r>
       <r>    14.2512     0.0000     8.0000 </r>
       <r>    14.3226     0.0000     8.0000 </r>
      </set>
     </set>
    </array>
   </total>
   <partial>
    <array>
     <dimension dim="1">gridpoints</dimension>
     <dimension dim="2">spin</dimension>
     <dimension dim="3">ion</dimension>
     <field>energy</field>
     <field>    s</field>
     <field>   py</field>
     <field>   pz</field>
     <field>   px</field>
     <field>  dxy</field>
     <field>  dyz</field>
     <field>  dz2</field>
     <field>  dxz</field>
     <field>x2-y2</field>
     <set>
      <set comment="ion 1">
       <set comment="spin 1">
        <r>    -7.1174     0.0000     0.0000     0.0000     0.0000     0.0000     0.0000     0.0000     0.0000     0.0000 </r>
        <r>    -7.0459     0.0000     0.0000     0.0000     0.0000     0.0000     0.0000     0.0000     0.0000     0.0000 </r>
        <r>    -6.9745     0.0000     0.0000     0.0000     0.0000     0.0000     0.0000     0.0000     0.0000     0.0000 </r>
        <r>    -6.9030     0.0000     0.0000     0.0000     0.0000     0.0000     0.0000     0.0000     0.0000     0.0000 </r>
        <r>    -6.8315     0.0000     0.0000     0.0000     0.0000     0.0000     0.0000     0.0000     0.0000     0.0000 </r>
        <r>    -6.7601     0.0000     0.0000     0.0000     0.0000     0.0000     0.0000     0.0000     0.0000     0.0000 </r>
        <r>    -6.6886     0.0000     0.0000     0.0000     0.0000     0.0000     0.0000     0.0000     0.0000     0.0000 </r>
        <r>    -6.6171     0.0000     0.0000     0.0000     0.0000     0.0000     0.0000     0.0000     0.0000     0.0000 </r>
        <r>    -6.5457     0.0000     0.0000     0.0000     0.0000     0.0000     0.0000     0.0000     0.0000     0.0000 </r>
        <r>    -6.4742     0.0000     0.0000     0.0000     0.0000     0.0000     0.0000     0.0000     0.0000     0.0000 </r>
        <r>    -6.4027     0.0000     0.0000     0.0000     0.0000     0.0000     0.0000     0.0000     0.0000     0.0000 </r>
        <r>    -6.3313     0.0000     0.0000     0.0000     0.0000     0.0000     0.0000     0.0000     0.0000     0.0000 </r>
        <r>    -6.2598     0.0000     0.0000     0.0000     0.0000     0.0000     0.0000     0.0000     0.0000     0.0000 </r>
        <r>    -6.1883     0.0000     0.0000     0.0000     0.0000     0.0000     0.0000     0.0000     0.0000     0.0000 </r>
        <r>    -6.1169     0.0000     0.0000     0.0000     0.0000     0.0000     0.0000     0.0000     0.0000     0.0000 </r>
        <r>    -6.0454     0.0003     0.0000     0.0000     0.0000     0.0000     0.0000     0.0000     0.0000     0.0000 </r>
        <r>    -5.9739     0.0008     0.0000     0.0000     0.0000     0.0000     0.0000     0.0000     0.0000     0.0000 </r>
        <r>    -5.9025     0.0016     0.0000     0.0000     0.0000     0.0000     0.0000     0.0000     0.0000     0.0000 </r>
        <r>    -5.8310     0.0027     0.0000     0.0000     0.0000     0.0000     0.0000     0.0000     0.0000     0.0000 </r>
        <r>    -5.7595     0.0041     0.0001     0.0001     0.0001     0.0000     0.0000     0.0000     0.0000     0.0000 </r>
        <r>    -5.6881     0.0057     0.0001     0.0001     0.0001     0.0000     0.0000     0.0000     0.0000     0.0000 </r>
        <r>    -5.6166     0.0077     0.0001     0.0001     0.0001     0.0000     0.0000     0.0000     0.0000     0.0000 </r>
        <r>    -5.5451     0.0099     0.0002     0.0002     0.0002     0.0000     0.0000     0.0000     0.0000     0.0000 </r>
        <r>    -5.4737     0.0124     0.0002     0.0002     0.0002     0.0000     0.0000     0.0000     0.0000     0.0000 </r>
        <r>    -5.4022     0.0152     0.0003     0.0003     0.0003     0.0000     0.0000     0.0000     0.0000     0.0000 </r>
        <r>    -5.3307     0.0182     0.0003     0.0003     0.0003     0.0000     0.0000     0.0000     0.0000     0.0000 </r>
        <r>    -5.2593     0.0216     0.0004     0.0004     0.0004     0.0000     0.0000     0.0000     0.0000     0.0000 </r>
        <r>    -5.1878     0.0252     0.0004     0.0004     0.0004     0.0000     0.0000     0.0000     0.0000     0.0000 </r>
        <r>    -5.1163     0.0291     0.0005     0.0005     0.0005     0.0000     0.0000     0.0000     0.0000     0.0000 </r>
        <r>    -5.0449     0.0333     0.0006     0.0006     0.0006     0.0000     0.0000     0.0000     0.0000     0.0000 </r>
        <r>    -4.9734     0.0378     0.0007     0.0007     0.0007     0.0000     0.0000     0.0000     0.0000     0.0000 </r>
        <r>    -4.9019     0.0426     0.0008     0.0008     0.0007     0.0000     0.0000     0.0000     0.0000     0.0000 </r>
        <r>    -4.8305     0.0476     0.0008     0.0008     0.0008     0.0000     0.0000     0.0000     0.0000     0.0000 </r>
        <r>    -4.7590     0.0522     0.0010     0.0010     0.0010     0.0000     0.0000     0.0000     0.0000     0.0000 </r>
        <r>    -4.6875     0.0567     0.0013     0.0013     0.0013     0.0000     0.0000     0.0000     0.0000     0.0000 </r>
        <r>    -4.6161     0.0613     0.0016     0.0016     0.0015     0.0000     0.0000     0.0000     0.0000     0.0000 </r>
        <r>    -4.5446     0.0661     0.0018     0.0018     0.0018     0.0000     0.0000     0.0000     0.0000     0.0000 </r>
        <r>    -4.4731     0.0712     0.0021     0.0021     0.0020     0.0000     0.0000     0.0000     0.0000     0.0000 </r>
        <r>    -4.4017     0.0764     0.0023     0.0023     0.0022     0.0000     0.0000     0.0000     0.0000     0.0000 </r>
        <r>    -4.3302     0.0819     0.0025     0.0025     0.0025     0.0000     0.0000     0.0000     0.0000     0.0000 </r>
        <r>    -4.2587     0.0889     0.0028     0.0028     0.0027     0.0000     0.0000     0.0000     0.0000     0.0000 </r>
        <r>    -4.1873     0.0974     0.0031     0.0031     0.0030     0.0000     0.0000     0.0000     0.0000     0.0000 </r>
        <r>    -4.1158     0.1048     0.0034     0.0034     0.0033     0.0000     0.0000     0.0000     0.0000     0.0000 </r>
        <r>    -4.0443     0.1111     0.0036     0.0036     0.0035     0.0000     0.0000     0.0000     0.0000     0.0000 </r>
        <r>    -3.9729     0.1163     0.0038     0.0038     0.0037     0.0000     0.0000     0.0000     0.0000     0.0000 </r>
        <r>    -3.9014     0.1203     0.0040     0.0040     0.0039     0.0000     0.0000     0.0000     0.0000     0.0000 </r>
        <r>    -3.8299     0.1232     0.0041     0.0041     0.0041     0.0000     0.0000     0.0000     0.0000     0.0000 </r>
        <r>    -3.7585     0.1251     0.0042     0.0042     0.0041     0.0000     0.0000     0.0000     0.0000     0.0000 </r>
        <r>    -3.6870     0.1257     0.0043     0.0043     0.0042     0.0000     0.0000     0.0000     0.0000     0.0000 </r>
        <r>    -3.6155     0.1253     0.0043     0.0043     0.0042     0.0000     0.0000     0.0000     0.0000     0.0000 </r>
        <r>    -3.5441     0.1238     0.0043     0.0043     0.0042     0.0000     0.0000     0.0000     0.0000     0.0000 </r>
        <r>    -3.4726     0.1211     0.0042     0.0042     0.0042     0.0000     0.0000     0.0000     0.0000     0.0000 </r>
        <r>    -3.4011     0.1173     0.0041     0.0041     0.0041     0.0000     0.0000     0.0000     0.0000     0.0000 </r>
        <r>    -3.3297     0.1124     0.0040     0.0040     0.0040     0.0000     0.0000     0.0000     0.0000     0.0000 </r>
        <r>    -3.2582     0.1064     0.0039     0.0039     0.0038     0.0000     0.0000     0.0000     0.0000     0.0000 </r>
        <r>    -3.1867     0.0993     0.0037     0.0037     0.0036     0.0000     0.0000     0.0000     0.0000     0.0000 </r>
        <r>    -3.1153     0.0910     0.0034     0.0034     0.0034     0.0000     0.0000     0.0000     0.0000     0.0000 </r>
        <r>    -3.0438     0.0817     0.0031     0.0031     0.0031     0.0000     0.0000     0.0000     0.0000     0.0000 </r>
        <r>    -2.9723     0.0712     0.0028     0.0028     0.0028     0.0000     0.0000     0.0000     0.0000     0.0000 </r>
        <r>    -2.9009     0.1100     0.0046     0.0046     0.0045     0.0000     0.0000     0.0000     0.0000     0.0000 </r>
        <r>    -2.8294     0.0000     0.0000     0.0000     0.0000     0.0000     0.0000     0.0000     0.0000     0.0000 </r>
        <r>    -2.7579     0.0000     0.0000     0.0000     0.0000     0.0000     0.0000     0.0000     0.0000     0.0000 </r>
        <r>    -2.6865     0.0000     0.0000     0.0000     0.0000     0.0000     0.0000     0.0000     0.0000     0.0000 </r>
        <r>    -2.6150     0.0000     0.0000     0.0000     0.0000     0.0000     0.0000     0.0000     0.0000     0.0000 </r>
        <r>    -2.5435     0.0000     0.0000     0.0000     0.0000     0.0000     0.0000     0.0000     0.0000     0.0000 </r>
        <r>    -2.4721     0.0000     0.0000     0.0000     0.0000     0.0000     0.0000     0.0000     0.0000     0.0000 </r>
        <r>    -2.4006     0.0000     0.0000     0.0000     0.0000     0.0000     0.0000     0.0000     0.0000     0.0000 </r>
        <r>    -2.3291     0.0000     0.0000     0.0000     0.0000     0.0000     0.0000     0.0000     0.0000     0.0000 </r>
        <r>    -2.2577     0.0000     0.0000     0.0000     0.0000     0.0000     0.0000     0.0000     0.0000     0.0000 </r>
        <r>    -2.1862     0.0000     0.0000     0.0000     0.0000     0.0000     0.0000     0.0000     0.0000     0.0000 </r>
        <r>    -2.1147     0.0000     0.0000     0.0000     0.0000     0.0000     0.0000     0.0000     0.0000     0.0000 </r>
        <r>    -2.0433     0.0000     0.0000     0.0000     0.0000     0.0000     0.0000     0.0000     0.0000     0.0000 </r>
        <r>    -1.9718     0.0000     0.0000     0.0000     0.0000     0.0000     0.0000     0.0000     0.0000     0.0000 </r>
        <r>    -1.9003     0.0000     0.0000     0.0000     0.0000     0.0000     0.0000     0.0000     0.0000     0.0000 </r>
        <r>    -1.8289     0.0000     0.0000     0.0000     0.0000     0.0000     0.0000     0.0000     0.0000     0.0000 </r>
        <r>    -1.7574     0.0000     0.0000     0.0000     0.0000     0.0000     0.0000     0.0000     0.0000     0.0000 </r>
        <r>    -1.6859     0.0000     0.0000     0.0000     0.0000     0.0000     0.0000     0.0000     0.0000     0.0000 </r>
        <r>    -1.6145     0.0000     0.0000     0.0000     0.0000     0.0000     0.0000     0.0000     0.0000     0.0000 </r>
        <r>    -1.5430     0.0000     0.0000     0.0000     0.0000     0.0000     0.0000     0.0000     0.0000     0.0000 </r>
        <r>    -1.4715     0.0000     0.0000     0.0000     0.0000     0.0000     0.0000     0.0000     0.0000     0.0000 </r>
        <r>    -1.4001     0.0000     0.0000     0.0000     0.0000     0.0000     0.0000     0.0000     0.0000     0.0000 </r>
        <r>    -1.3286     0.0000     0.0000     0.0000     0.0000     0.0000     0.0000     0.0000     0.0000     0.0000 </r>
        <r>    -1.2571     0.0000     0.0000     0.0000     0.0000     0.0000     0.0000     0.0000     0.0000     0.0000 </r>
        <r>    -1.1857     0.0000     0.0000     0.0000     0.0000     0.0000     0.0000     0.0000     0.0000     0.0000 </r>
        <r>    -1.1142     0.0000     0.0000     0.0000     0.0000     0.0000     0.0000     0.0000     0.0000     0.0000 </r>
        <r>    -1.0427     0.1415     0.0168     0.0168     0.0164     0.0000     0.0000     0.0000     0.0000     0.0000 </r>
        <r>    -0.9713     0.0599     0.0082     0.0082     0.0079     0.0000     0.0000     0.0000     0.0000     0.0000 </r>
        <r>    -0.8998     0.0686     0.0097     0.0097     0.0094     0.0000     0.0000     0.0000     0.0000     0.0000 </r>
        <r>    -0.8283     0.0762     0.0111     0.0111     0.0108     0.0000     0.0000     0.0000     0.0000     0.0000 </r>
        <r>    -0.7569     0.0828     0.0123     0.0123     0.0120     0.0000     0.0000     0.0000     0.0000     0.0000 </r>
        <r>    -0.6854     0.0885     0.0134     0.0134     0.0131     0.0000     0.0000     0.0000     0.0000     0.0000 </r>
        <r>    -0.6139     0.0931     0.0143     0.0143     0.0140     0.0000     0.0000     0.0000     0.0000     0.0000 </r>
        <r>    -0.5425     0.0968     0.0150     0.0150     0.0148     0.0000     0.0000     0.0000     0.0000     0.0000 </r>
        <r>    -0.4710     0.0995     0.0156     0.0156     0.0153     0.0000     0.0000     0.0000     0.0000     0.0000 </r>
        <r>    -0.3995     0.1011     0.0160     0.0160     0.0158     0.0000     0.0000     0.0000     0.0000     0.0000 </r>
        <r>    -0.3281     0.1018     0.0162     0.0162     0.0160     0.0000     0.0000     0.0000     0.0000     0.0000 </r>
        <r>    -0.2566     0.1015     0.0163     0.0163     0.0161     0.0000     0.0000     0.0000     0.0000     0.0000 </r>
        <r>    -0.1851     0.1002     0.0162     0.0162     0.0161     0.0000     0.0000     0.0000     0.0000     0.0000 </r>
        <r>    -0.1137     0.0979     0.0160     0.0160     0.0159     0.0000     0.0000     0.0000     0.0000     0.0000 </r>
        <r>    -0.0422     0.0946     0.0156     0.0156     0.0155     0.0000     0.0000     0.0000     0.0000     0.0000 </r>
        <r>     0.0293     0.0903     0.0150     0.0150     0.0149     0.0000     0.0000     0.0000     0.0000     0.0000 </r>
        <r>     0.1007     0.0850     0.0143     0.0143     0.0142     0.0000     0.0000     0.0000     0.0000     0.0000 </r>
        <r>     0.1722     0.0787     0.0134     0.0134     0.0134     0.0000     0.0000     0.0000     0.0000     0.0000 </r>
        <r>     0.2437     0.0714     0.0123     0.0123     0.0124     0.0000     0.0000     0.0000     0.0000     0.0000 </r>
        <r>     0.3151     0.0632     0.0111     0.0111     0.0112     0.0000     0.0000     0.0000     0.0000     0.0000 </r>
        <r>     0.3866     0.0498     0.0093     0.0093     0.0091     0.0000     0.0000     0.0000     0.0000     0.0000 </r>
        <r>     0.4581     0.0306     0.0068     0.0068     0.0058     0.0000     0.0000     0.0000     0.0000     0.0000 </r>
        <r>     0.5295     0.0172     0.0051     0.0051     0.0036     0.0000     0.0000     0.0000     0.0000     0.0000 </r>
        <r>     0.6010     0.0098     0.0042     0.0042     0.0023     0.0000     0.0000     0.0000     0.0000     0.0000 </r>
        <r>     0.6725     0.0078     0.0039     0.0039     0.0018     0.0000     0.0000     0.0000     0.0000     0.0000 </r>
        <r>     0.7439     0.0075     0.0038     0.0038     0.0018     0.0000     0.0000     0.0000     0.0000     0.0000 </r>
        <r>     0.8154     0.0073     0.0037     0.0037     0.0017     0.0000     0.0000     0.0000     0.0000     0.0000 </r>
        <r>     0.8869     0.0070     0.0036     0.0036     0.0017     0.0000     0.0000     0.0000     0.0000     0.0000 </r>
        <r>     0.9583     0.0068     0.0035     0.0035     0.0016     0.0000     0.0000     0.0000     0.0000     0.0000 </r>
        <r>     1.0298     0.0066     0.0034     0.0034     0.0016     0.0000     0.0000     0.0000     0.0000     0.0000 </r>
        <r>     1.1013     0.0064     0.0033     0.0033     0.0015     0.0000     0.0000     0.0000     0.0000     0.0000 </r>
        <r>     1.1727     0.0062     0.0032     0.0032     0.0015     0.0000     0.0000     0.0000     0.0000     0.0000 </r>
        <r>     1.2442     0.0060     0.0031     0.0031     0.0014     0.0000     0.0000     0.0000     0.0000     0.0000 </r>
        <r>     1.3157     0.0058     0.0030     0.0030     0.0014     0.0000     0.0000     0.0000     0.0000     0.0000 </r>
        <r>     1.3871     0.0080     0.0423     0.0423     0.0394     0.0000     0.0000     0.0000     0.0000     0.0000 </r>
        <r>     1.4586     0.0061     0.0179     0.0179     0.0138     0.0000     0.0000     0.0000     0.0000     0.0000 </r>
        <r>     1.5301     0.0059     0.0190     0.0190     0.0141     0.0000     0.0000     0.0000     0.0000     0.0000 </r>
        <r>     1.6015     0.0057     0.0200     0.0200     0.0144     0.0000     0.0000     0.0000     0.0000     0.0000 </r>
        <r>     1.6730     0.0055     0.0210     0.0210     0.0147     0.0000     0.0000     0.0000     0.0000     0.0000 </r>
        <r>     1.7445     0.0054     0.0219     0.0219     0.0149     0.0000     0.0000     0.0000     0.0000     0.0000 </r>
        <r>     1.8159     0.0052     0.0226     0.0226     0.0150     0.0000     0.0000     0.0000     0.0000     0.0000 </r>
        <r>     1.8874     0.0050     0.0233     0.0233     0.0151     0.0000     0.0000     0.0000     0.0000     0.0000 </r>
        <r>     1.9589     0.0049     0.0240     0.0240     0.0152     0.0000     0.0000     0.0000     0.0000     0.0000 </r>
        <r>     2.0303     0.0047     0.0245     0.0245     0.0152     0.0000     0.0000     0.0000     0.0000     0.0000 </r>
        <r>     2.1018     0.0045     0.0249     0.0249     0.0152     0.0000     0.0000     0.0000     0.0000     0.0000 </r>
        <r>     2.1733     0.0044     0.0253     0.0253     0.0151     0.0000     0.0000     0.0000     0.0000     0.0000 </r>
        <r>     2.2447     0.0042     0.0256     0.0256     0.0150     0.0000     0.0000     0.0000     0.0000     0.0000 </r>
        <r>     2.3162     0.0041     0.0257     0.0257     0.0148     0.0000     0.0000     0.0000     0.0000     0.0000 </r>
        <r>     2.3877     0.0039     0.0258     0.0258     0.0146     0.0000     0.0000     0.0000     0.0000     0.0000 </r>
        <r>     2.4591     0.0037     0.0259     0.0259     0.0144     0.0000     0.0000     0.0000     0.0000     0.0000 </r>
        <r>     2.5306     0.0036     0.0258     0.0258     0.0141     0.0000     0.0000     0.0000     0.0000     0.0000 </r>
        <r>     2.6021     0.0034     0.0256     0.0256     0.0137     0.0000     0.0000     0.0000     0.0000     0.0000 </r>
        <r>     2.6735     0.0033     0.0254     0.0254     0.0133     0.0000     0.0000     0.0000     0.0000     0.0000 </r>
        <r>     2.7450     0.0031     0.0250     0.0250     0.0129     0.0000     0.0000     0.0000     0.0000     0.0000 </r>
        <r>     2.8165     0.0030     0.0246     0.0246     0.0124     0.0000     0.0000     0.0000     0.0000     0.0000 </r>
        <r>     2.8879     0.0028     0.0241     0.0241     0.0119     0.0000     0.0000     0.0000     0.0000     0.0000 </r>
        <r>     2.9594     0.0027     0.0235     0.0235     0.0113     0.0000     0.0000     0.0000     0.0000     0.0000 </r>
        <r>     3.0309     0.0026     0.0229     0.0229     0.0107     0.0000     0.0000     0.0000     0.0000     0.0000 </r>
        <r>     3.1023     0.0024     0.0221     0.0221     0.0100     0.0000     0.0000     0.0000     0.0000     0.0000 </r>
        <r>     3.1738     0.0023     0.0213     0.0213     0.0093     0.0000     0.0000     0.0000     0.0000     0.0000 </r>
        <r>     3.2453     0.0021     0.0258     0.0258     0.0088     0.0000     0.0000     0.0000     0.0000     0.0000 </r>
        <r>     3.3167     0.0020     0.0422     0.0422     0.0221     0.0000     0.0000     0.0000     0.0000     0.0000 </r>
        <r>     3.3882     0.0019     0.0696     0.0696     0.0590     0.0000     0.0000     0.0000     0.0000     0.0000 </r>
        <r>     3.4597     0.0018     0.1022     0.1022     0.1049     0.0000     0.0000     0.0000     0.0000     0.0000 </r>
        <r>     3.5311     0.0017     0.1444     0.1444     0.1656     0.0000     0.0000     0.0000     0.0000     0.0000 </r>
        <r>     3.6026     0.0016     0.0655     0.0655     0.0884     0.0000     0.0000     0.0000     0.0000     0.0000 </r>
        <r>     3.6741     0.0014     0.0561     0.0561     0.0723     0.0000     0.0000     0.0000     0.0000     0.0000 </r>
        <r>     3.7456     0.0013     0.0552     0.0552     0.0729     0.0000     0.0000     0.0000     0.0000     0.0000 </r>
        <r>     3.8170     0.0012     0.0540     0.0540     0.0729     0.0000     0.0000     0.0000     0.0000     0.0000 </r>
        <r>     3.8885     0.0011     0.0526     0.0526     0.0724     0.0000     0.0000     0.0000     0.0000     0.0000 </r>
        <r>     3.9600     0.0010     0.0511     0.0511     0.0713     0.0000     0.0000     0.0000     0.0000     0.0000 </r>
        <r>     4.0314     0.0010     0.0493     0.0493     0.0696     0.0000     0.0000     0.0000     0.0000     0.0000 </r>
        <r>     4.1029     0.0009     0.0474     0.0474     0.0673     0.0000     0.0000     0.0000     0.0000     0.0000 </r>
        <r>     4.1744     0.0008     0.0453     0.0453     0.0645     0.0000     0.0000     0.0000     0.0000     0.0000 </r>
        <r>     4.2458     0.0007     0.0430     0.0430     0.0612     0.0000     0.0000     0.0000     0.0000     0.0000 </r>
[...]
       </set>
       <set comment="band 5">
        <r>  0.1721  0.0101  0.0101  0.0129  0.0000  0.0000  0.0000  0.0000  0.0000 </r>
        <r>  0.1721  0.0101  0.0101  0.0129  0.0000  0.0000  0.0000  0.0000  0.0000 </r>
       </set>
       <set comment="band 6">
        <r>  0.0000  0.0566  0.0566  0.0000  0.0000  0.0000  0.0000  0.0000  0.0000 </r>
        <r>  0.0000  0.0566  0.0566  0.0000  0.0000  0.0000  0.0000  0.0000  0.0000 </r>
       </set>
       <set comment="band 7">
        <r>  0.0003  0.0204  0.0204  0.0756  0.0000  0.0000  0.0000  0.0000  0.0000 </r>
        <r>  0.0003  0.0204  0.0204  0.0756  0.0000  0.0000  0.0000  0.0000  0.0000 </r>
       </set>
       <set comment="band 8">
        <r>  0.0221  0.0453  0.0456  0.0444  0.0000  0.0000  0.0000  0.0000  0.0000 </r>
        <r>  0.0221  0.0457  0.0455  0.0442  0.0000  0.0000  0.0000  0.0000  0.0000 </r>
       </set>
      </set>
      <set comment="kpoint 3">
       <set comment="band 1">
        <r>  0.2018  0.0000  0.0198  0.0000  0.0000  0.0000  0.0000  0.0000  0.0000 </r>
        <r>  0.2018  0.0000  0.0198  0.0000  0.0000  0.0000  0.0000  0.0000  0.0000 </r>
       </set>
       <set comment="band 2">
        <r>  0.1743  0.0000  0.0752  0.0000  0.0000  0.0000  0.0000  0.0000  0.0000 </r>
        <r>  0.1743  0.0000  0.0752  0.0000  0.0000  0.0000  0.0000  0.0000  0.0000 </r>
       </set>
       <set comment="band 3">
        <r>  0.0000  0.1143  0.0000  0.0794  0.0000  0.0000  0.0000  0.0000  0.0000 </r>
        <r>  0.0000  0.1143  0.0000  0.0794  0.0000  0.0000  0.0000  0.0000  0.0000 </r>
       </set>
       <set comment="band 4">
        <r>  0.0000  0.0790  0.0000  0.1143  0.0000  0.0000  0.0000  0.0000  0.0000 </r>
        <r>  0.0000  0.0790  0.0000  0.1143  0.0000  0.0000  0.0000  0.0000  0.0000 </r>
       </set>
       <set comment="band 5">
        <r>  0.0494  0.0000  0.0582  0.0000  0.0000  0.0000  0.0000  0.0000  0.0000 </r>
        <r>  0.0494  0.0000  0.0582  0.0000  0.0000  0.0000  0.0000  0.0000  0.0000 </r>
       </set>
       <set comment="band 6">
        <r>  0.0450  0.0000  0.0322  0.0000  0.0000  0.0000  0.0000  0.0000  0.0000 </r>
        <r>  0.0450  0.0000  0.0322  0.0000  0.0000  0.0000  0.0000  0.0000  0.0000 </r>
       </set>
       <set comment="band 7">
        <r>  0.0000  0.1014  0.0000  0.0649  0.0000  0.0000  0.0000  0.0000  0.0000 </r>
        <r>  0.0000  0.1014  0.0000  0.0649  0.0000  0.0000  0.0000  0.0000  0.0000 </r>
       </set>
       <set comment="band 8">
        <r>  0.0000  0.0653  0.0000  0.1009  0.0000  0.0000  0.0000  0.0000  0.0000 </r>
        <r>  0.0000  0.0653  0.0000  0.1009  0.0000  0.0000  0.0000  0.0000  0.0000 </r>
       </set>
      </set>
      <set comment="kpoint 4">
       <set comment="band 1">
        <r>  0.2124  0.0073  0.0118  0.0074  0.0000  0.0000  0.0000  0.0000  0.0000 </r>
        <r>  0.2124  0.0073  0.0118  0.0074  0.0000  0.0000  0.0000  0.0000  0.0000 </r>
       </set>
       <set comment="band 2">
        <r>  0.1755  0.0098  0.0408  0.0094  0.0000  0.0000  0.0000  0.0000  0.0000 </r>
        <r>  0.1755  0.0098  0.0408  0.0094  0.0000  0.0000  0.0000  0.0000  0.0000 </r>
       </set>
       <set comment="band 3">
        <r>  0.0032  0.0456  0.0576  0.0459  0.0000  0.0000  0.0000  0.0000  0.0000 </r>
        <r>  0.0032  0.0456  0.0576  0.0459  0.0000  0.0000  0.0000  0.0000  0.0000 </r>
       </set>
       <set comment="band 4">
        <r>  0.0000  0.0995  0.0000  0.0996  0.0000  0.0000  0.0000  0.0000  0.0000 </r>
        <r>  0.0000  0.0995  0.0000  0.0996  0.0000  0.0000  0.0000  0.0000  0.0000 </r>
       </set>
       <set comment="band 5">
        <r>  0.0543  0.0009  0.0444  0.0014  0.0000  0.0000  0.0000  0.0000  0.0000 </r>
        <r>  0.0543  0.0009  0.0444  0.0014  0.0000  0.0000  0.0000  0.0000  0.0000 </r>
       </set>
       <set comment="band 6">
        <r>  0.0070  0.0443  0.0013  0.0311  0.0000  0.0000  0.0000  0.0000  0.0000 </r>
        <r>  0.0070  0.0443  0.0013  0.0311  0.0000  0.0000  0.0000  0.0000  0.0000 </r>
       </set>
       <set comment="band 7">
        <r>  0.0015  0.0632  0.0030  0.0864  0.0000  0.0000  0.0000  0.0000  0.0000 </r>
        <r>  0.0015  0.0632  0.0030  0.0864  0.0000  0.0000  0.0000  0.0000  0.0000 </r>
       </set>
       <set comment="band 8">
        <r>  0.0421  0.0103  0.1218  0.0003  0.0000  0.0000  0.0000  0.0000  0.0000 </r>
        <r>  0.0421  0.0102  0.1218  0.0003  0.0000  0.0000  0.0000  0.0000  0.0000 </r>
       </set>
      </set>
      <set comment="kpoint 5">
       <set comment="band 1">
        <r>  0.2023  0.0000  0.0000  0.0198  0.0000  0.0000  0.0000  0.0000  0.0000 </r>
        <r>  0.2023  0.0000  0.0000  0.0198  0.0000  0.0000  0.0000  0.0000  0.0000 </r>
       </set>
       <set comment="band 2">
        <r>  0.1762  0.0000  0.0000  0.0745  0.0000  0.0000  0.0000  0.0000  0.0000 </r>
        <r>  0.1762  0.0000  0.0000  0.0745  0.0000  0.0000  0.0000  0.0000  0.0000 </r>
       </set>
       <set comment="band 3">
        <r>  0.0000  0.0965  0.0965  0.0000  0.0000  0.0000  0.0000  0.0000  0.0000 </r>
        <r>  0.0000  0.0965  0.0965  0.0000  0.0000  0.0000  0.0000  0.0000  0.0000 </r>
       </set>
       <set comment="band 4">
        <r>  0.0000  0.0965  0.0965  0.0000  0.0000  0.0000  0.0000  0.0000  0.0000 </r>
        <r>  0.0000  0.0965  0.0965  0.0000  0.0000  0.0000  0.0000  0.0000  0.0000 </r>
       </set>
       <set comment="band 5">
        <r>  0.0495  0.0000  0.0000  0.0589  0.0000  0.0000  0.0000  0.0000  0.0000 </r>
        <r>  0.0495  0.0000  0.0000  0.0589  0.0000  0.0000  0.0000  0.0000  0.0000 </r>
       </set>
       <set comment="band 6">
        <r>  0.0438  0.0000  0.0000  0.0346  0.0000  0.0000  0.0000  0.0000  0.0000 </r>
        <r>  0.0438  0.0000  0.0000  0.0346  0.0000  0.0000  0.0000  0.0000  0.0000 </r>
       </set>
       <set comment="band 7">
        <r>  0.0000  0.0835  0.0825  0.0000  0.0000  0.0000  0.0000  0.0000  0.0000 </r>
        <r>  0.0000  0.0824  0.0836  0.0000  0.0000  0.0000  0.0000  0.0000  0.0000 </r>
       </set>
       <set comment="band 8">
        <r>  0.0000  0.0825  0.0835  0.0000  0.0000  0.0000  0.0000  0.0000  0.0000 </r>
        <r>  0.0000  0.0836  0.0824  0.0000  0.0000  0.0000  0.0000  0.0000  0.0000 </r>
       </set>
      </set>
      <set comment="kpoint 6">
       <set comment="band 1">
        <r>  0.2118  0.0077  0.0077  0.0113  0.0000  0.0000  0.0000  0.0000  0.0000 </r>
        <r>  0.2118  0.0077  0.0077  0.0113  0.0000  0.0000  0.0000  0.0000  0.0000 </r>
       </set>
       <set comment="band 2">
        <r>  0.1766  0.0096  0.0096  0.0407  0.0000  0.0000  0.0000  0.0000  0.0000 </r>
        <r>  0.1766  0.0096  0.0096  0.0407  0.0000  0.0000  0.0000  0.0000  0.0000 </r>
       </set>
       <set comment="band 3">
        <r>  0.0038  0.0453  0.0453  0.0586  0.0000  0.0000  0.0000  0.0000  0.0000 </r>
        <r>  0.0038  0.0453  0.0453  0.0586  0.0000  0.0000  0.0000  0.0000  0.0000 </r>
       </set>
       <set comment="band 4">
        <r>  0.0000  0.0992  0.0992  0.0000  0.0000  0.0000  0.0000  0.0000  0.0000 </r>
        <r>  0.0000  0.0992  0.0992  0.0000  0.0000  0.0000  0.0000  0.0000  0.0000 </r>
       </set>
       <set comment="band 5">
        <r>  0.0538  0.0011  0.0011  0.0456  0.0000  0.0000  0.0000  0.0000  0.0000 </r>
        <r>  0.0538  0.0011  0.0011  0.0456  0.0000  0.0000  0.0000  0.0000  0.0000 </r>
       </set>
       <set comment="band 6">
        <r>  0.0090  0.0386  0.0386  0.0030  0.0000  0.0000  0.0000  0.0000  0.0000 </r>
        <r>  0.0090  0.0386  0.0386  0.0030  0.0000  0.0000  0.0000  0.0000  0.0000 </r>
       </set>
       <set comment="band 7">
        <r>  0.0000  0.0757  0.0757  0.0000  0.0000  0.0000  0.0000  0.0000  0.0000 </r>
        <r>  0.0000  0.0757  0.0757  0.0000  0.0000  0.0000  0.0000  0.0000  0.0000 </r>
       </set>
       <set comment="band 8">
        <r>  0.0431  0.0027  0.0027  0.1218  0.0000  0.0000  0.0000  0.0000  0.0000 </r>
        <r>  0.0430  0.0027  0.0027  0.1219  0.0000  0.0000  0.0000  0.0000  0.0000 </r>
       </set>
      </set>
     </set>
     <set comment="spin2">
      <set comment="kpoint 1">
       <set comment="band 1">
        <r>  0.2105  0.0000  0.0000  0.0000  0.0000  0.0000  0.0000  0.0000  0.0000 </r>
        <r>  0.2105  0.0000  0.0000  0.0000  0.0000  0.0000  0.0000  0.0000  0.0000 </r>
       </set>
       <set comment="band 2">
        <r>  0.0000  0.1063  0.1063  0.0000  0.0000  0.0000  0.0000  0.0000  0.0000 </r>
        <r>  0.0000  0.1063  0.1063  0.0000  0.0000  0.0000  0.0000  0.0000  0.0000 </r>
       </set>
       <set comment="band 3">
        <r>  0.0000  0.1063  0.1063  0.0000  0.0000  0.0000  0.0000  0.0000  0.0000 </r>
        <r>  0.0000  0.1063  0.1063  0.0000  0.0000  0.0000  0.0000  0.0000  0.0000 </r>
       </set>
       <set comment="band 4">
        <r>  0.0000  0.0000  0.0000  0.2115  0.0000  0.0000  0.0000  0.0000  0.0000 </r>
        <r>  0.0000  0.0000  0.0000  0.2115  0.0000  0.0000  0.0000  0.0000  0.0000 </r>
       </set>
       <set comment="band 5">
        <r>  0.0000  0.0000  0.0000  0.1507  0.0000  0.0000  0.0000  0.0000  0.0000 </r>
        <r>  0.0000  0.0000  0.0000  0.1507  0.0000  0.0000  0.0000  0.0000  0.0000 </r>
       </set>
       <set comment="band 6">
        <r>  0.0000  0.0745  0.0745  0.0000  0.0000  0.0000  0.0000  0.0000  0.0000 </r>
        <r>  0.0000  0.0745  0.0745  0.0000  0.0000  0.0000  0.0000  0.0000  0.0000 </r>
       </set>
       <set comment="band 7">
        <r>  0.0000  0.0745  0.0745  0.0000  0.0000  0.0000  0.0000  0.0000  0.0000 </r>
        <r>  0.0000  0.0745  0.0745  0.0000  0.0000  0.0000  0.0000  0.0000  0.0000 </r>
       </set>
       <set comment="band 8">
        <r>  0.3579  0.0000  0.0000  0.0000  0.0000  0.0000  0.0000  0.0000  0.0000 </r>
        <r>  0.3579  0.0000  0.0000  0.0000  0.0000  0.0000  0.0000  0.0000  0.0000 </r>
       </set>
      </set>
      <set comment="kpoint 2">
       <set comment="band 1">
        <r>  0.2086  0.0040  0.0040  0.0040  0.0000  0.0000  0.0000  0.0000  0.0000 </r>
        <r>  0.2086  0.0040  0.0040  0.0040  0.0000  0.0000  0.0000  0.0000  0.0000 </r>
       </set>
       <set comment="band 2">
        <r>  0.1065  0.0334  0.0334  0.0332  0.0000  0.0000  0.0000  0.0000  0.0000 </r>
        <r>  0.1065  0.0334  0.0334  0.0332  0.0000  0.0000  0.0000  0.0000  0.0000 </r>
       </set>
       <set comment="band 3">
        <r>  0.0000  0.1055  0.1055  0.0000  0.0000  0.0000  0.0000  0.0000  0.0000 </r>
        <r>  0.0000  0.1055  0.1055  0.0000  0.0000  0.0000  0.0000  0.0000  0.0000 </r>
       </set>
       <set comment="band 4">
        <r>  0.0000  0.0353  0.0353  0.1408  0.0000  0.0000  0.0000  0.0000  0.0000 </r>
        <r>  0.0000  0.0353  0.0353  0.1408  0.0000  0.0000  0.0000  0.0000  0.0000 </r>
       </set>
       <set comment="band 5">
        <r>  0.1721  0.0101  0.0101  0.0129  0.0000  0.0000  0.0000  0.0000  0.0000 </r>
        <r>  0.1721  0.0101  0.0101  0.0129  0.0000  0.0000  0.0000  0.0000  0.0000 </r>
       </set>
       <set comment="band 6">
        <r>  0.0000  0.0566  0.0566  0.0000  0.0000  0.0000  0.0000  0.0000  0.0000 </r>
        <r>  0.0000  0.0566  0.0566  0.0000  0.0000  0.0000  0.0000  0.0000  0.0000 </r>
       </set>
       <set comment="band 7">
        <r>  0.0003  0.0204  0.0204  0.0756  0.0000  0.0000  0.0000  0.0000  0.0000 </r>
        <r>  0.0003  0.0204  0.0204  0.0756  0.0000  0.0000  0.0000  0.0000  0.0000 </r>
       </set>
       <set comment="band 8">
        <r>  0.0222  0.0456  0.0456  0.0442  0.0000  0.0000  0.0000  0.0000  0.0000 </r>
        <r>  0.0222  0.0456  0.0456  0.0442  0.0000  0.0000  0.0000  0.0000  0.0000 </r>
       </set>
      </set>
      <set comment="kpoint 3">
       <set comment="band 1">
        <r>  0.2018  0.0000  0.0198  0.0000  0.0000  0.0000  0.0000  0.0000  0.0000 </r>
        <r>  0.2018  0.0000  0.0198  0.0000  0.0000  0.0000  0.0000  0.0000  0.0000 </r>
       </set>
       <set comment="band 2">
        <r>  0.1743  0.0000  0.0752  0.0000  0.0000  0.0000  0.0000  0.0000  0.0000 </r>
        <r>  0.1743  0.0000  0.0752  0.0000  0.0000  0.0000  0.0000  0.0000  0.0000 </r>
       </set>
       <set comment="band 3">
        <r>  0.0000  0.1143  0.0000  0.0794  0.0000  0.0000  0.0000  0.0000  0.0000 </r>
        <r>  0.0000  0.1143  0.0000  0.0794  0.0000  0.0000  0.0000  0.0000  0.0000 </r>
       </set>
       <set comment="band 4">
        <r>  0.0000  0.0790  0.0000  0.1143  0.0000  0.0000  0.0000  0.0000  0.0000 </r>
        <r>  0.0000  0.0790  0.0000  0.1143  0.0000  0.0000  0.0000  0.0000  0.0000 </r>
       </set>
       <set comment="band 5">
        <r>  0.0494  0.0000  0.0582  0.0000  0.0000  0.0000  0.0000  0.0000  0.0000 </r>
        <r>  0.0494  0.0000  0.0582  0.0000  0.0000  0.0000  0.0000  0.0000  0.0000 </r>
       </set>
       <set comment="band 6">
        <r>  0.0450  0.0000  0.0322  0.0000  0.0000  0.0000  0.0000  0.0000  0.0000 </r>
        <r>  0.0450  0.0000  0.0322  0.0000  0.0000  0.0000  0.0000  0.0000  0.0000 </r>
       </set>
       <set comment="band 7">
        <r>  0.0000  0.1014  0.0000  0.0649  0.0000  0.0000  0.0000  0.0000  0.0000 </r>
        <r>  0.0000  0.1014  0.0000  0.0649  0.0000  0.0000  0.0000  0.0000  0.0000 </r>
       </set>
       <set comment="band 8">
        <r>  0.0000  0.0653  0.0000  0.1009  0.0000  0.0000  0.0000  0.0000  0.0000 </r>
        <r>  0.0000  0.0653  0.0000  0.1009  0.0000  0.0000  0.0000  0.0000  0.0000 </r>
       </set>
      </set>
      <set comment="kpoint 4">
       <set comment="band 1">
        <r>  0.2124  0.0073  0.0118  0.0074  0.0000  0.0000  0.0000  0.0000  0.0000 </r>
        <r>  0.2124  0.0073  0.0118  0.0074  0.0000  0.0000  0.0000  0.0000  0.0000 </r>
       </set>
       <set comment="band 2">
        <r>  0.1755  0.0098  0.0408  0.0094  0.0000  0.0000  0.0000  0.0000  0.0000 </r>
        <r>  0.1755  0.0098  0.0408  0.0094  0.0000  0.0000  0.0000  0.0000  0.0000 </r>
       </set>
       <set comment="band 3">
        <r>  0.0032  0.0456  0.0576  0.0459  0.0000  0.0000  0.0000  0.0000  0.0000 </r>
        <r>  0.0032  0.0456  0.0576  0.0459  0.0000  0.0000  0.0000  0.0000  0.0000 </r>
       </set>
       <set comment="band 4">
        <r>  0.0000  0.0995  0.0000  0.0996  0.0000  0.0000  0.0000  0.0000  0.0000 </r>
        <r>  0.0000  0.0995  0.0000  0.0996  0.0000  0.0000  0.0000  0.0000  0.0000 </r>
       </set>
       <set comment="band 5">
        <r>  0.0543  0.0009  0.0444  0.0014  0.0000  0.0000  0.0000  0.0000  0.0000 </r>
        <r>  0.0543  0.0009  0.0444  0.0014  0.0000  0.0000  0.0000  0.0000  0.0000 </r>
       </set>
       <set comment="band 6">
        <r>  0.0070  0.0443  0.0013  0.0311  0.0000  0.0000  0.0000  0.0000  0.0000 </r>
        <r>  0.0070  0.0443  0.0013  0.0311  0.0000  0.0000  0.0000  0.0000  0.0000 </r>
       </set>
       <set comment="band 7">
        <r>  0.0015  0.0632  0.0030  0.0864  0.0000  0.0000  0.0000  0.0000  0.0000 </r>
        <r>  0.0015  0.0632  0.0030  0.0864  0.0000  0.0000  0.0000  0.0000  0.0000 </r>
       </set>
       <set comment="band 8">
        <r>  0.0422  0.0102  0.1217  0.0003  0.0000  0.0000  0.0000  0.0000  0.0000 </r>
        <r>  0.0421  0.0103  0.1218  0.0003  0.0000  0.0000  0.0000  0.0000  0.0000 </r>
       </set>
      </set>
      <set comment="kpoint 5">
       <set comment="band 1">
        <r>  0.2023  0.0000  0.0000  0.0198  0.0000  0.0000  0.0000  0.0000  0.0000 </r>
        <r>  0.2023  0.0000  0.0000  0.0198  0.0000  0.0000  0.0000  0.0000  0.0000 </r>
       </set>
       <set comment="band 2">
        <r>  0.1762  0.0000  0.0000  0.0745  0.0000  0.0000  0.0000  0.0000  0.0000 </r>
        <r>  0.1762  0.0000  0.0000  0.0745  0.0000  0.0000  0.0000  0.0000  0.0000 </r>
       </set>
       <set comment="band 3">
        <r>  0.0000  0.0965  0.0965  0.0000  0.0000  0.0000  0.0000  0.0000  0.0000 </r>
        <r>  0.0000  0.0965  0.0965  0.0000  0.0000  0.0000  0.0000  0.0000  0.0000 </r>
       </set>
       <set comment="band 4">
        <r>  0.0000  0.0965  0.0965  0.0000  0.0000  0.0000  0.0000  0.0000  0.0000 </r>
        <r>  0.0000  0.0965  0.0965  0.0000  0.0000  0.0000  0.0000  0.0000  0.0000 </r>
       </set>
       <set comment="band 5">
        <r>  0.0495  0.0000  0.0000  0.0589  0.0000  0.0000  0.0000  0.0000  0.0000 </r>
        <r>  0.0495  0.0000  0.0000  0.0589  0.0000  0.0000  0.0000  0.0000  0.0000 </r>
       </set>
       <set comment="band 6">
        <r>  0.0438  0.0000  0.0000  0.0346  0.0000  0.0000  0.0000  0.0000  0.0000 </r>
        <r>  0.0438  0.0000  0.0000  0.0346  0.0000  0.0000  0.0000  0.0000  0.0000 </r>
       </set>
       <set comment="band 7">
        <r>  0.0000  0.0837  0.0823  0.0000  0.0000  0.0000  0.0000  0.0000  0.0000 </r>
        <r>  0.0000  0.0821  0.0839  0.0000  0.0000  0.0000  0.0000  0.0000  0.0000 </r>
       </set>
       <set comment="band 8">
        <r>  0.0000  0.0823  0.0837  0.0000  0.0000  0.0000  0.0000  0.0000  0.0000 </r>
        <r>  0.0000  0.0839  0.0821  0.0000  0.0000  0.0000  0.0000  0.0000  0.0000 </r>
       </set>
      </set>
      <set comment="kpoint 6">
       <set comment="band 1">
        <r>  0.2118  0.0077  0.0077  0.0113  0.0000  0.0000  0.0000  0.0000  0.0000 </r>
        <r>  0.2118  0.0077  0.0077  0.0113  0.0000  0.0000  0.0000  0.0000  0.0000 </r>
       </set>
       <set comment="band 2">
        <r>  0.1766  0.0096  0.0096  0.0407  0.0000  0.0000  0.0000  0.0000  0.0000 </r>
        <r>  0.1766  0.0096  0.0096  0.0407  0.0000  0.0000  0.0000  0.0000  0.0000 </r>
       </set>
       <set comment="band 3">
        <r>  0.0038  0.0453  0.0453  0.0586  0.0000  0.0000  0.0000  0.0000  0.0000 </r>
        <r>  0.0038  0.0453  0.0453  0.0586  0.0000  0.0000  0.0000  0.0000  0.0000 </r>
       </set>
       <set comment="band 4">
        <r>  0.0000  0.0992  0.0992  0.0000  0.0000  0.0000  0.0000  0.0000  0.0000 </r>
        <r>  0.0000  0.0992  0.0992  0.0000  0.0000  0.0000  0.0000  0.0000  0.0000 </r>
       </set>
       <set comment="band 5">
        <r>  0.0538  0.0011  0.0011  0.0456  0.0000  0.0000  0.0000  0.0000  0.0000 </r>
        <r>  0.0538  0.0011  0.0011  0.0456  0.0000  0.0000  0.0000  0.0000  0.0000 </r>
       </set>
       <set comment="band 6">
        <r>  0.0090  0.0386  0.0386  0.0030  0.0000  0.0000  0.0000  0.0000  0.0000 </r>
        <r>  0.0090  0.0386  0.0386  0.0030  0.0000  0.0000  0.0000  0.0000  0.0000 </r>
       </set>
       <set comment="band 7">
        <r>  0.0000  0.0757  0.0757  0.0000  0.0000  0.0000  0.0000  0.0000  0.0000 </r>
        <r>  0.0000  0.0757  0.0757  0.0000  0.0000  0.0000  0.0000  0.0000  0.0000 </r>
       </set>
       <set comment="band 8">
        <r>  0.0431  0.0027  0.0027  0.1218  0.0000  0.0000  0.0000  0.0000  0.0000 </r>
        <r>  0.0430  0.0027  0.0027  0.1219  0.0000  0.0000  0.0000  0.0000  0.0000 </r>
       </set>
      </set>
     </set>
    </set>
   </array>
  </projected>
 </calculation>
 <structure name="finalpos" >
  <crystal>
   <varray name="basis" >
    <v>       0.00000000       2.75277700       2.75277700 </v>
    <v>       2.72511000       0.00000000       2.75277700 </v>
    <v>       2.72511000       2.75277700       0.00000000 </v>
   </varray>
   <i name="volume">     41.30057472 </i>
   <varray name="rec_basis" >
    <v>      -0.18347883       0.18163476       0.18163476 </v>
    <v>       0.18347883      -0.18163476       0.18163476 </v>
    <v>       0.18347883       0.18163476      -0.18163476 </v>
   </varray>
  </crystal>
  <varray name="positions" >
   <v>       0.75000000       0.75000000       0.75000000 </v>
   <v>       0.50000000       0.50000000       0.50000000 </v>
  </varray>
 </structure>
</modeling>
