 vasp.6.2.1 16May21 (build Oct 27 2021 18:14:32) complex                        
  
 executed on             LinuxIFC date 2021.10.28  14:47:02
 running on    4 total cores
 distrk:  each k-point on    4 cores,    1 groups
 distr:  one band on NCORE=   1 cores,    4 groups


--------------------------------------------------------------------------------------------------------


 INCAR:
   ALGO = Normal
   EDIFF = 1e-05
   EDIFFG = -0.02
   ENAUG = 1360.0
   ENCUT = 680.0
   IBRION = -1
   ICHARG = 11
   ISIF = 3
   ISMEAR = 0
   ISPIN = 1
   ISYM = 0
   LAECHG = True
   LASPH = True
   LCHARG = False
   LELF = True
   LMIXTAU = True
   LORBIT = 11
   LREAL = Auto
   LVTOT = True
   LWAVE = False
   NBANDS = 15
   NELM = 200
   NSW = 0
   PREC = Accurate
   SIGMA = 0.01

 POTCAR:    PAW_PBE Si 05Jan2001                  
 WARNING: For LVTOT=.TRUE., VASP.5.x writes the TOTAL local potential to the
     file LOCPOT. If you want only the Hartree contributions, use LVHAR=.TRUE.
     instead. 

 POTCAR:    PAW_PBE Si 05Jan2001                  
   VRHFIN =Si: s2p2                                                                                 
   LEXCH  = PE                                                                                      
   EATOM  =   103.0669 eV,    7.5752 Ry                                                             
                                                                                                    
   TITEL  = PAW_PBE Si 05Jan2001                                                                    
   LULTRA =        F    use ultrasoft PP ?                                                          
   IUNSCR =        1    unscreen: 0-lin 1-nonlin 2-no                                               
   RPACOR =    1.500    partial core radius                                                         
   POMASS =   28.085; ZVAL   =    4.000    mass and valenz                                          
   RCORE  =    1.900    outmost cutoff radius                                                       
   RWIGS  =    2.480; RWIGS  =    1.312    wigner-seitz radius (au A)                               
   ENMAX  =  245.345; ENMIN  =  184.009 eV                                                          
   ICORE  =        2    local potential                                                             
   LCOR   =        T    correct aug charges                                                         
   LPAW   =        T    paw PP                                                                      
   EAUG   =  322.069                                                                                
   DEXC   =    0.000                                                                                
   RMAX   =    1.950    core radius for proj-oper                                                   
   RAUG   =    1.300    factor for augmentation sphere                                              
   RDEP   =    1.993    radius for radial grids                                                     
   RDEPT  =    1.837    core radius for aug-charge                                                  
                                                                                                    
   Atomic configuration                                                                             
    6 entries                                                                                       
     n  l   j            E        occ.                                                              
     1  0  0.50     -1785.8828   2.0000                                                             
     2  0  0.50      -139.4969   2.0000                                                             
     2  1  1.50       -95.5546   6.0000                                                             
     3  0  0.50       -10.8127   2.0000                                                             
     3  1  0.50        -4.0811   2.0000                                                             
     3  2  1.50        -4.0817   0.0000                                                             
   Description                                                                                      
     l       E           TYP  RCUT    TYP  RCUT                                                     
     0    -10.8127223     23  1.900                                                                 
     0     -7.6451159     23  1.900                                                                 
     1     -4.0811372     23  1.900                                                                 
     1      2.4879257     23  1.900                                                                 
     2     -4.0817478      7  1.900                                                                 
  local pseudopotential read in
  partial core-charges read in
  partial kinetic energy density read in
  atomic valenz-charges read in
  non local Contribution for L=           0  read in
    real space projection operators read in
  non local Contribution for L=           0  read in
    real space projection operators read in
  non local Contribution for L=           1  read in
    real space projection operators read in
  non local Contribution for L=           1  read in
    real space projection operators read in
    PAW grid and wavefunctions read in
 
   number of l-projection  operators is LMAX  =           4
   number of lm-projection operators is LMMAX =           8
 
 -----------------------------------------------------------------------------
|                                                                             |
|               ----> ADVICE to this user running VASP <----                  |
|                                                                             |
|     You have a (more or less) 'small supercell' and for smaller cells       |
|     it is recommended to use the reciprocal-space projection scheme!        |
|     The real-space optimization is not efficient for small cells and it     |
|     is also less accurate ...                                               |
|     Therefore, set LREAL=.FALSE. in the INCAR file.                         |
|                                                                             |
 -----------------------------------------------------------------------------

 Optimization of the real space projectors (new method)

 maximal supplied QI-value         = 19.84
 optimisation between [QCUT,QGAM] = [ 13.29, 26.59] = [ 49.49,197.96] Ry 
 Optimized for a Real-space Cutoff    1.12 Angstroem

   l    n(q)    QCUT    max X(q) W(low)/X(q) W(high)/X(q)  e(spline) 
   0      9    13.294   159.560    0.23E-03    0.88E-04    0.53E-07
   0      9    13.294   115.863    0.22E-03    0.87E-04    0.52E-07
   1      8    13.294    88.339    0.81E-04    0.17E-03    0.12E-06
   1      8    13.294    48.592    0.79E-04    0.17E-03    0.12E-06
  PAW_PBE Si 05Jan2001                  :
 energy of atom  1       EATOM= -103.0669
 kinetic energy error for atom=    0.0003 (will be added to EATOM!!)
 
 
 POSCAR: Si2
  positions in direct lattice
  No initial velocities read in
 exchange correlation table for  LEXCH =        8
   RHO(1)=    0.500       N(1)  =     2000
   RHO(2)=  100.500       N(2)  =     4000
 


--------------------------------------------------------------------------------------------------------


 ion  position               nearest neighbor table
   1  0.250  0.250  0.250-   2 2.37   2 2.37   2 2.37   2 2.37
   2  0.000  0.000  0.000-   1 2.37   1 2.37   1 2.37   1 2.37
 

IMPORTANT INFORMATION: All symmetrisations will be switched off!
NOSYMM: (Re-)initialisation of all symmetry stuff for point group C_1.


----------------------------------------------------------------------------------------

                                     Primitive cell                                     

  volume of cell :      40.8883

  direct lattice vectors                    reciprocal lattice vectors
     3.348898000  0.000000000  1.933487000     0.298605691 -0.105573000  0.000000000
     1.116299000  3.157372000  1.933487000     0.000000000  0.316719094  0.000000000
     0.000000000  0.000000000  3.866975000    -0.149302807 -0.105573020  0.258600069

  length of vectors
     3.866974243  3.866974707  3.866975000     0.316719145  0.316719094  0.316719096

  position of ions in fractional coordinates (direct lattice)
     0.250000000  0.250000000  0.250000000
     0.000000000  0.000000000  0.000000000

  ion indices of the primitive-cell ions
   primitive index   ion index
                 1           1
                 2           2

----------------------------------------------------------------------------------------

 
 
 KPOINTS: Non SCF run along symmetry lines        

Read explcit list of k-points.

 Found    164 k-points:

 Following reciprocal coordinates:
            Coordinates               Weight
  0.000000  0.000000  0.000000      0.006098
  0.021739  0.000000  0.021739      0.006098
  0.043478  0.000000  0.043478      0.006098
  0.065217  0.000000  0.065217      0.006098
  0.086957  0.000000  0.086957      0.006098
  0.108696  0.000000  0.108696      0.006098
  0.130435  0.000000  0.130435      0.006098
  0.152174  0.000000  0.152174      0.006098
  0.173913  0.000000  0.173913      0.006098
  0.195652  0.000000  0.195652      0.006098
  0.217391  0.000000  0.217391      0.006098
  0.239130  0.000000  0.239130      0.006098
  0.260870  0.000000  0.260870      0.006098
  0.282609  0.000000  0.282609      0.006098
  0.304348  0.000000  0.304348      0.006098
  0.326087  0.000000  0.326087      0.006098
  0.347826  0.000000  0.347826      0.006098
  0.369565  0.000000  0.369565      0.006098
  0.391304  0.000000  0.391304      0.006098
  0.413043  0.000000  0.413043      0.006098
  0.434783  0.000000  0.434783      0.006098
  0.456522  0.000000  0.456522      0.006098
  0.478261  0.000000  0.478261      0.006098
  0.500000  0.000000  0.500000      0.006098
  0.500000  0.000000  0.500000      0.006098
  0.500000  0.020833  0.520833      0.006098
  0.500000  0.041667  0.541667      0.006098
  0.500000  0.062500  0.562500      0.006098
  0.500000  0.083333  0.583333      0.006098
  0.500000  0.104167  0.604167      0.006098
  0.500000  0.125000  0.625000      0.006098
  0.500000  0.145833  0.645833      0.006098
  0.500000  0.166667  0.666667      0.006098
  0.500000  0.187500  0.687500      0.006098
  0.500000  0.208333  0.708333      0.006098
  0.500000  0.229167  0.729167      0.006098
  0.500000  0.250000  0.750000      0.006098
  0.500000  0.250000  0.750000      0.006098
  0.486111  0.263889  0.750000      0.006098
  0.472222  0.277778  0.750000      0.006098
  0.458333  0.291667  0.750000      0.006098
  0.444444  0.305556  0.750000      0.006098
  0.430556  0.319444  0.750000      0.006098
  0.416667  0.333333  0.750000      0.006098
  0.402778  0.347222  0.750000      0.006098
  0.388889  0.361111  0.750000      0.006098
  0.375000  0.375000  0.750000      0.006098
  0.375000  0.375000  0.750000      0.006098
  0.360000  0.360000  0.720000      0.006098
  0.345000  0.345000  0.690000      0.006098
  0.330000  0.330000  0.660000      0.006098
  0.315000  0.315000  0.630000      0.006098
  0.300000  0.300000  0.600000      0.006098
  0.285000  0.285000  0.570000      0.006098
  0.270000  0.270000  0.540000      0.006098
  0.255000  0.255000  0.510000      0.006098
  0.240000  0.240000  0.480000      0.006098
  0.225000  0.225000  0.450000      0.006098
  0.210000  0.210000  0.420000      0.006098
  0.195000  0.195000  0.390000      0.006098
  0.180000  0.180000  0.360000      0.006098
  0.165000  0.165000  0.330000      0.006098
  0.150000  0.150000  0.300000      0.006098
  0.135000  0.135000  0.270000      0.006098
  0.120000  0.120000  0.240000      0.006098
  0.105000  0.105000  0.210000      0.006098
  0.090000  0.090000  0.180000      0.006098
  0.075000  0.075000  0.150000      0.006098
  0.060000  0.060000  0.120000      0.006098
  0.045000  0.045000  0.090000      0.006098
  0.030000  0.030000  0.060000      0.006098
  0.015000  0.015000  0.030000      0.006098
  0.000000  0.000000  0.000000      0.006098
  0.000000  0.000000  0.000000      0.006098
  0.025000  0.025000  0.025000      0.006098
  0.050000  0.050000  0.050000      0.006098
  0.075000  0.075000  0.075000      0.006098
  0.100000  0.100000  0.100000      0.006098
  0.125000  0.125000  0.125000      0.006098
  0.150000  0.150000  0.150000      0.006098
  0.175000  0.175000  0.175000      0.006098
  0.200000  0.200000  0.200000      0.006098
  0.225000  0.225000  0.225000      0.006098
  0.250000  0.250000  0.250000      0.006098
  0.275000  0.275000  0.275000      0.006098
  0.300000  0.300000  0.300000      0.006098
  0.325000  0.325000  0.325000      0.006098
  0.350000  0.350000  0.350000      0.006098
  0.375000  0.375000  0.375000      0.006098
  0.400000  0.400000  0.400000      0.006098
  0.425000  0.425000  0.425000      0.006098
  0.450000  0.450000  0.450000      0.006098
  0.475000  0.475000  0.475000      0.006098
  0.500000  0.500000  0.500000      0.006098
  0.500000  0.500000  0.500000      0.006098
  0.508333  0.483333  0.508333      0.006098
  0.516667  0.466667  0.516667      0.006098
  0.525000  0.450000  0.525000      0.006098
  0.533333  0.433333  0.533333      0.006098
  0.541667  0.416667  0.541667      0.006098
  0.550000  0.400000  0.550000      0.006098
  0.558333  0.383333  0.558333      0.006098
  0.566667  0.366667  0.566667      0.006098
  0.575000  0.350000  0.575000      0.006098
  0.583333  0.333333  0.583333      0.006098
  0.591667  0.316667  0.591667      0.006098
  0.600000  0.300000  0.600000      0.006098
  0.608333  0.283333  0.608333      0.006098
  0.616667  0.266667  0.616667      0.006098
  0.625000  0.250000  0.625000      0.006098
  0.625000  0.250000  0.625000      0.006098
  0.611111  0.250000  0.638889      0.006098
  0.597222  0.250000  0.652778      0.006098
  0.583333  0.250000  0.666667      0.006098
  0.569444  0.250000  0.680556      0.006098
  0.555556  0.250000  0.694444      0.006098
  0.541667  0.250000  0.708333      0.006098
  0.527778  0.250000  0.722222      0.006098
  0.513889  0.250000  0.736111      0.006098
  0.500000  0.250000  0.750000      0.006098
  0.500000  0.250000  0.750000      0.006098
  0.500000  0.264706  0.735294      0.006098
  0.500000  0.279412  0.720588      0.006098
  0.500000  0.294118  0.705882      0.006098
  0.500000  0.308824  0.691176      0.006098
  0.500000  0.323529  0.676471      0.006098
  0.500000  0.338235  0.661765      0.006098
  0.500000  0.352941  0.647059      0.006098
  0.500000  0.367647  0.632353      0.006098
  0.500000  0.382353  0.617647      0.006098
  0.500000  0.397059  0.602941      0.006098
  0.500000  0.411765  0.588235      0.006098
  0.500000  0.426471  0.573529      0.006098
  0.500000  0.441176  0.558824      0.006098
  0.500000  0.455882  0.544118      0.006098
  0.500000  0.470588  0.529412      0.006098
  0.500000  0.485294  0.514706      0.006098
  0.500000  0.500000  0.500000      0.006098
  0.500000  0.500000  0.500000      0.006098
  0.491667  0.491667  0.516667      0.006098
  0.483333  0.483333  0.533333      0.006098
  0.475000  0.475000  0.550000      0.006098
  0.466667  0.466667  0.566667      0.006098
  0.458333  0.458333  0.583333      0.006098
  0.450000  0.450000  0.600000      0.006098
  0.441667  0.441667  0.616667      0.006098
  0.433333  0.433333  0.633333      0.006098
  0.425000  0.425000  0.650000      0.006098
  0.416667  0.416667  0.666667      0.006098
  0.408333  0.408333  0.683333      0.006098
  0.400000  0.400000  0.700000      0.006098
  0.391667  0.391667  0.716667      0.006098
  0.383333  0.383333  0.733333      0.006098
  0.375000  0.375000  0.750000      0.006098
  0.625000  0.250000  0.625000      0.006098
  0.611111  0.222222  0.611111      0.006098
  0.597222  0.194444  0.597222      0.006098
  0.583333  0.166667  0.583333      0.006098
  0.569444  0.138889  0.569444      0.006098
  0.555556  0.111111  0.555556      0.006098
  0.541667  0.083333  0.541667      0.006098
  0.527778  0.055556  0.527778      0.006098
  0.513889  0.027778  0.513889      0.006098
  0.500000  0.000000  0.500000      0.006098

 Following cartesian coordinates:
            Coordinates               Weight
  0.000000  0.000000  0.000000      0.006098
  0.003246 -0.004590  0.005622      0.006098
  0.006491 -0.009180  0.011243      0.006098
  0.009737 -0.013770  0.016865      0.006098
  0.012983 -0.018361  0.022487      0.006098
  0.016229 -0.022951  0.028109      0.006098
  0.019474 -0.027541  0.033730      0.006098
  0.022720 -0.032131  0.039352      0.006098
  0.025966 -0.036721  0.044974      0.006098
  0.029211 -0.041311  0.050596      0.006098
  0.032457 -0.045901  0.056217      0.006098
  0.035703 -0.050491  0.061839      0.006098
  0.038949 -0.055082  0.067461      0.006098
  0.042194 -0.059672  0.073083      0.006098
  0.045440 -0.064262  0.078704      0.006098
  0.048686 -0.068852  0.084326      0.006098
  0.051931 -0.073442  0.089948      0.006098
  0.055177 -0.078032  0.095570      0.006098
  0.058423 -0.082622  0.101191      0.006098
  0.061669 -0.087212  0.106813      0.006098
  0.064914 -0.091803  0.112435      0.006098
  0.068160 -0.096393  0.118057      0.006098
  0.071406 -0.100983  0.123678      0.006098
  0.074651 -0.105573  0.129300      0.006098
  0.074651 -0.105573  0.129300      0.006098
  0.071541 -0.101174  0.134688      0.006098
  0.068430 -0.096775  0.140075      0.006098
  0.065320 -0.092376  0.145463      0.006098
  0.062210 -0.087978  0.150850      0.006098
  0.059099 -0.083579  0.156238      0.006098
  0.055989 -0.079180  0.161625      0.006098
  0.052878 -0.074781  0.167013      0.006098
  0.049768 -0.070382  0.172400      0.006098
  0.046657 -0.065983  0.177788      0.006098
  0.043547 -0.061584  0.183175      0.006098
  0.040436 -0.057185  0.188563      0.006098
  0.037326 -0.052786  0.193950      0.006098
  0.037326 -0.052786  0.193950      0.006098
  0.033178 -0.046921  0.193950      0.006098
  0.029031 -0.041056  0.193950      0.006098
  0.024884 -0.035191  0.193950      0.006098
  0.020737 -0.029326  0.193950      0.006098
  0.016589 -0.023461  0.193950      0.006098
  0.012442 -0.017595  0.193950      0.006098
  0.008295 -0.011730  0.193950      0.006098
  0.004147 -0.005865  0.193950      0.006098
  0.000000  0.000000  0.193950      0.006098
  0.000000  0.000000  0.193950      0.006098
  0.000000  0.000000  0.186192      0.006098
  0.000000  0.000000  0.178434      0.006098
  0.000000  0.000000  0.170676      0.006098
  0.000000  0.000000  0.162918      0.006098
  0.000000  0.000000  0.155160      0.006098
  0.000000  0.000000  0.147402      0.006098
  0.000000  0.000000  0.139644      0.006098
  0.000000  0.000000  0.131886      0.006098
  0.000000  0.000000  0.124128      0.006098
  0.000000  0.000000  0.116370      0.006098
  0.000000  0.000000  0.108612      0.006098
  0.000000  0.000000  0.100854      0.006098
  0.000000  0.000000  0.093096      0.006098
  0.000000  0.000000  0.085338      0.006098
  0.000000  0.000000  0.077580      0.006098
  0.000000  0.000000  0.069822      0.006098
  0.000000  0.000000  0.062064      0.006098
  0.000000  0.000000  0.054306      0.006098
  0.000000  0.000000  0.046548      0.006098
  0.000000  0.000000  0.038790      0.006098
  0.000000  0.000000  0.031032      0.006098
  0.000000  0.000000  0.023274      0.006098
  0.000000  0.000000  0.015516      0.006098
  0.000000  0.000000  0.007758      0.006098
  0.000000  0.000000  0.000000      0.006098
  0.000000  0.000000  0.000000      0.006098
  0.003733  0.002639  0.006465      0.006098
  0.007465  0.005279  0.012930      0.006098
  0.011198  0.007918  0.019395      0.006098
  0.014930  0.010557  0.025860      0.006098
  0.018663  0.013197  0.032325      0.006098
  0.022395  0.015836  0.038790      0.006098
  0.026128  0.018475  0.045255      0.006098
  0.029861  0.021115  0.051720      0.006098
  0.033593  0.023754  0.058185      0.006098
  0.037326  0.026393  0.064650      0.006098
  0.041058  0.029033  0.071115      0.006098
  0.044791  0.031672  0.077580      0.006098
  0.048523  0.034311  0.084045      0.006098
  0.052256  0.036951  0.090510      0.006098
  0.055989  0.039590  0.096975      0.006098
  0.059721  0.042229  0.103440      0.006098
  0.063454  0.044869  0.109905      0.006098
  0.067186  0.047508  0.116370      0.006098
  0.070919  0.050147  0.122835      0.006098
  0.074651  0.052787  0.129300      0.006098
  0.074651  0.052787  0.129300      0.006098
  0.075896  0.045748  0.131455      0.006098
  0.077140  0.038710  0.133610      0.006098
  0.078384  0.031672  0.135765      0.006098
  0.079628  0.024634  0.137920      0.006098
  0.080872  0.017596  0.140075      0.006098
  0.082117  0.010557  0.142230      0.006098
  0.083361  0.003519  0.144385      0.006098
  0.084605 -0.003519  0.146540      0.006098
  0.085849 -0.010557  0.148695      0.006098
  0.087093 -0.017595  0.150850      0.006098
  0.088338 -0.024634  0.153005      0.006098
  0.089582 -0.031672  0.155160      0.006098
  0.090826 -0.038710  0.157315      0.006098
  0.092070 -0.045748  0.159470      0.006098
  0.093314 -0.052786  0.161625      0.006098
  0.093314 -0.052786  0.161625      0.006098
  0.087093 -0.052786  0.165217      0.006098
  0.080872 -0.052786  0.168808      0.006098
  0.074651 -0.052786  0.172400      0.006098
  0.068430 -0.052786  0.175992      0.006098
  0.062210 -0.052786  0.179583      0.006098
  0.055989 -0.052786  0.183175      0.006098
  0.049768 -0.052786  0.186767      0.006098
  0.043547 -0.052786  0.190358      0.006098
  0.037326 -0.052786  0.193950      0.006098
  0.037326 -0.052786  0.193950      0.006098
  0.039521 -0.046576  0.190147      0.006098
  0.041717 -0.040366  0.186344      0.006098
  0.043913 -0.034156  0.182541      0.006098
  0.046108 -0.027946  0.178738      0.006098
  0.048304 -0.021736  0.174935      0.006098
  0.050500 -0.015525  0.171132      0.006098
  0.052695 -0.009315  0.167329      0.006098
  0.054891 -0.003105  0.163527      0.006098
  0.057086  0.003105  0.159724      0.006098
  0.059282  0.009315  0.155921      0.006098
  0.061478  0.015525  0.152118      0.006098
  0.063673  0.021736  0.148315      0.006098
  0.065869  0.027946  0.144512      0.006098
  0.068065  0.034156  0.140709      0.006098
  0.070260  0.040366  0.136906      0.006098
  0.072456  0.046576  0.133103      0.006098
  0.074651  0.052787  0.129300      0.006098
  0.074651  0.052787  0.129300      0.006098
  0.069675  0.049267  0.133610      0.006098
  0.064698  0.045748  0.137920      0.006098
  0.059721  0.042229  0.142230      0.006098
  0.054744  0.038710  0.146540      0.006098
  0.049768  0.035191  0.150850      0.006098
  0.044791  0.031672  0.155160      0.006098
  0.039814  0.028153  0.159470      0.006098
  0.034837  0.024634  0.163780      0.006098
  0.029861  0.021115  0.168090      0.006098
  0.024884  0.017596  0.172400      0.006098
  0.019907  0.014076  0.176710      0.006098
  0.014930  0.010557  0.181020      0.006098
  0.009954  0.007038  0.185330      0.006098
  0.004977  0.003519  0.189640      0.006098
  0.000000  0.000000  0.193950      0.006098
  0.093314 -0.052786  0.161625      0.006098
  0.091241 -0.058652  0.158033      0.006098
  0.089167 -0.064517  0.154442      0.006098
  0.087093 -0.070382  0.150850      0.006098
  0.085020 -0.076247  0.147258      0.006098
  0.082946 -0.082112  0.143667      0.006098
  0.080872 -0.087978  0.140075      0.006098
  0.078799 -0.093843  0.136483      0.006098
  0.076725 -0.099708  0.132892      0.006098
  0.074651 -0.105573  0.129300      0.006098
 
 -----------------------------------------------------------------------------
|                                                                             |
|           W    W    AA    RRRRR   N    N  II  N    N   GGGG   !!!           |
|           W    W   A  A   R    R  NN   N  II  NN   N  G    G  !!!           |
|           W    W  A    A  R    R  N N  N  II  N N  N  G       !!!           |
|           W WW W  AAAAAA  RRRRR   N  N N  II  N  N N  G  GGG   !            |
|           WW  WW  A    A  R   R   N   NN  II  N   NN  G    G                |
|           W    W  A    A  R    R  N    N  II  N    N   GGGG   !!!           |
|                                                                             |
|     The number of bands has been changed from the values supplied in        |
|     the INCAR file. This is a result of running the parallel version.       |
|     The orbitals not found in the WAVECAR file will be initialized with     |
|     random numbers, which is usually adequate. For correlated               |
|     calculations, however, you should redo the groundstate calculation.     |
|     I found NBANDS = 15. Now, NBANDS = 16.                                  |
|                                                                             |
 -----------------------------------------------------------------------------



--------------------------------------------------------------------------------------------------------




 Dimension of arrays:
   k-points           NKPTS =    164   k-points in BZ     NKDIM =    164   number of bands    NBANDS=     16
   number of dos      NEDOS =    301   number of ions     NIONS =      2
   non local maximal  LDIM  =      4   non local SUM 2l+1 LMDIM =      8
   total plane-waves  NPLWV =  46656
   max r-space proj   IRMAX =   6824   max aug-charges    IRDMAX=  38346
   dimension x,y,z NGX =    36 NGY =   36 NGZ =   36
   dimension x,y,z NGXF=    72 NGYF=   72 NGZF=   72
   support grid    NGXF=    72 NGYF=   72 NGZF=   72
   ions per type =               2
   NGX,Y,Z   is equivalent  to a cutoff of  15.48, 15.48, 15.48 a.u.
   NGXF,Y,Z  is equivalent  to a cutoff of  30.95, 30.95, 30.95 a.u.

 SYSTEM =  unknown system                          
 POSCAR =  Si2                                     

 Startparameter for this run:
   NWRITE =      2    write-flag & timer
   PREC   = accura    normal or accurate (medium, high low for compatibility)
   ISTART =      0    job   : 0-new  1-cont  2-samecut
   ICHARG =     11    charge: 1-file 2-atom 10-const
   ISPIN  =      1    spin polarized calculation?
   LNONCOLLINEAR =      F non collinear calculations
   LSORBIT =      F    spin-orbit coupling
   INIWAV =      1    electr: 0-lowe 1-rand  2-diag
   LASPH  =      T    aspherical Exc in radial PAW
 Electronic Relaxation 1
   ENCUT  =  680.0 eV  49.98 Ry    7.07 a.u.   8.22  8.22  8.22*2*pi/ulx,y,z
   ENINI  =  680.0     initial cutoff
   ENAUG  = 1360.0 eV  augmentation charge cutoff
   NELM   =    200;   NELMIN=  2; NELMDL= -5     # of ELM steps 
   EDIFF  = 0.1E-04   stopping-criterion for ELM
   LREAL  =      T    real-space projection
   NLSPLINE    = F    spline interpolate recip. space projectors
   LCOMPAT=      F    compatible to vasp.4.4
   GGA_COMPAT  = T    GGA compatible to vasp.4.4-vasp.4.6
   LMAXPAW     = -100 max onsite density
   LMAXMIX     =    2 max onsite mixed and CHGCAR
   VOSKOWN=      0    Vosko Wilk Nusair interpolation
   ROPT   =   -0.00025
 Ionic relaxation
   EDIFFG = -.2E-01   stopping-criterion for IOM
   NSW    =      0    number of steps for IOM
   NBLOCK =      1;   KBLOCK =      1    inner block; outer block 
   IBRION =     -1    ionic relax: 0-MD 1-quasi-New 2-CG
   NFREE  =      0    steps in history (QN), initial steepest desc. (CG)
   ISIF   =      3    stress and relaxation
   IWAVPR =     10    prediction:  0-non 1-charg 2-wave 3-comb
   ISYM   =      0    0-nonsym 1-usesym 2-fastsym
   LCORR  =      T    Harris-Foulkes like correction to forces

   POTIM  = 0.5000    time-step for ionic-motion
   TEIN   =    0.0    initial temperature
   TEBEG  =    0.0;   TEEND  =   0.0 temperature during run
   SMASS  =  -3.00    Nose mass-parameter (am)
   estimated Nose-frequenzy (Omega)   =  0.10E-29 period in steps = 0.13E+47 mass=  -0.342E-27a.u.
   SCALEE = 1.0000    scale energy and forces
   NPACO  =    256;   APACO  = 16.0  distance and # of slots for P.C.
   PSTRESS=    0.0 pullay stress

  Mass of Ions in am
   POMASS =  28.09
  Ionic Valenz
   ZVAL   =   4.00
  Atomic Wigner-Seitz radii
   RWIGS  =  -1.00
  virtual crystal weights 
   VCA    =   1.00
   NELECT =       8.0000    total number of electrons
   NUPDOWN=      -1.0000    fix difference up-down

 DOS related values:
   EMIN   =  10.00;   EMAX   =-10.00  energy-range for DOS
   EFERMI =   0.00
   ISMEAR =     0;   SIGMA  =   0.01  broadening in eV -4-tet -1-fermi 0-gaus

 Electronic relaxation 2 (details)
   IALGO  =     38    algorithm
   LDIAG  =      T    sub-space diagonalisation (order eigenvalues)
   LSUBROT=      F    optimize rotation matrix (better conditioning)
   TURBO    =      0    0=normal 1=particle mesh
   IRESTART =      0    0=no restart 2=restart with 2 vectors
   NREBOOT  =      0    no. of reboots
   NMIN     =      0    reboot dimension
   EREF     =   0.00    reference energy to select bands
   IMIX   =      4    mixing-type and parameters
     AMIX     =   0.40;   BMIX     =  1.00
     AMIX_MAG =   1.60;   BMIX_MAG =  1.00
     AMIN     =   0.10
     WC   =   100.;   INIMIX=   1;  MIXPRE=   1;  MAXMIX= -45

 Intra band minimization:
   WEIMIN = 0.0000     energy-eigenvalue tresh-hold
   EBREAK =  0.16E-06  absolut break condition
   DEPER  =   0.30     relativ break condition  

   TIME   =   0.40     timestep for ELM

  volume/ion in A,a.u.               =      20.44       137.96
  Fermi-wavevector in a.u.,A,eV,Ry     =   0.950397  1.795990 12.289528  0.903255
  Thomas-Fermi vector in A             =   2.078770
 
 Write flags
   LWAVE        =      F    write WAVECAR
   LDOWNSAMPLE  =      F    k-point downsampling of WAVECAR
   LCHARG       =      F    write CHGCAR
   LVTOT        =      T    write LOCPOT, total local potential
   LVHAR        =      F    write LOCPOT, Hartree potential only
   LELF         =      T    write electronic localiz. function (ELF)
   LORBIT       =     11    0 simple, 1 ext, 2 COOP (PROOUT), +10 PAW based schemes


 Dipole corrections
   LMONO  =      F    monopole corrections only (constant potential shift)
   LDIPOL =      F    correct potential (dipole corrections)
   IDIPOL =      0    1-x, 2-y, 3-z, 4-all directions 
   EPSILON=  1.0000000 bulk dielectric constant

 Exchange correlation treatment:
   GGA     =    --    GGA type
   LEXCH   =     8    internal setting for exchange type
   VOSKOWN=      0    Vosko Wilk Nusair interpolation
   LHFCALC =     F    Hartree Fock is set to
   LHFONE  =     F    Hartree Fock one center treatment
   AEXX    =    0.0000 exact exchange contribution

 Linear response parameters
   LEPSILON=     F    determine dielectric tensor
   LRPA    =     F    only Hartree local field effects (RPA)
   LNABLA  =     F    use nabla operator in PAW spheres
   LVEL    =     F    velocity operator in full k-point grid
   LINTERFAST=   F  fast interpolation
   KINTER  =     0    interpolate to denser k-point grid
   CSHIFT  =0.1000    complex shift for real part using Kramers Kronig
   OMEGAMAX=  -1.0    maximum frequency
   DEG_THRESHOLD= 0.2000000E-02 threshold for treating states as degnerate
   RTIME   =   -0.100 relaxation time in fs
  (WPLASMAI=    0.000 imaginary part of plasma frequency in eV, 0.658/RTIME)
   DFIELD  = 0.0000000 0.0000000 0.0000000 field for delta impulse in time
 
 Orbital magnetization related:
   ORBITALMAG=     F  switch on orbital magnetization
   LCHIMAG   =     F  perturbation theory with respect to B field
   DQ        =  0.001000  dq finite difference perturbation B field
   LLRAUG    =     F  two centre corrections for induced B field



--------------------------------------------------------------------------------------------------------


 Static calculation
 charge density and potential remain constant during run
 non-spin polarized calculation
 Variant of blocked Davidson
 Davidson routine will perform the subspace rotation
 perform sub-space diagonalisation
    after iterative eigenvector-optimisation
 no mixing
 using additional bands           12
 real space projection scheme for non local part
 use partial core corrections
 calculate Harris-corrections to forces 
   (improved forces if not selfconsistent)
 use gradient corrections 
 WARNING: stress and forces are not correct
  (second derivative of E(xc) not defined)
 use of overlap-Matrix (Vanderbilt PP)
 Gauss-broadening in eV      SIGMA  =   0.01


--------------------------------------------------------------------------------------------------------


  energy-cutoff  :      680.00
  volume of cell :       40.89
      direct lattice vectors                 reciprocal lattice vectors
     3.348898000  0.000000000  1.933487000     0.298605691 -0.105573000  0.000000000
     1.116299000  3.157372000  1.933487000     0.000000000  0.316719094  0.000000000
     0.000000000  0.000000000  3.866975000    -0.149302807 -0.105573020  0.258600069

  length of vectors
     3.866974243  3.866974707  3.866975000     0.316719145  0.316719094  0.316719096


 
 k-points in units of 2pi/SCALE and weight: Non SCF run along symmetry lines        
   0.00000000  0.00000000  0.00000000       0.006
   0.00324571 -0.00459013  0.00562174       0.006
   0.00649143 -0.00918026  0.01124348       0.006
   0.00973714 -0.01377039  0.01686522       0.006
   0.01298286 -0.01836052  0.02248696       0.006
   0.01622857 -0.02295065  0.02810870       0.006
   0.01947429 -0.02754079  0.03373044       0.006
   0.02272000 -0.03213092  0.03935218       0.006
   0.02596572 -0.03672105  0.04497392       0.006
   0.02921143 -0.04131118  0.05059567       0.006
   0.03245715 -0.04590131  0.05621741       0.006
   0.03570286 -0.05049144  0.06183915       0.006
   0.03894858 -0.05508157  0.06746089       0.006
   0.04219429 -0.05967170  0.07308263       0.006
   0.04544001 -0.06426183  0.07870437       0.006
   0.04868572 -0.06885196  0.08432611       0.006
   0.05193144 -0.07344209  0.08994785       0.006
   0.05517715 -0.07803222  0.09556959       0.006
   0.05842287 -0.08262236  0.10119133       0.006
   0.06166858 -0.08721249  0.10681307       0.006
   0.06491430 -0.09180262  0.11243481       0.006
   0.06816001 -0.09639275  0.11805655       0.006
   0.07140573 -0.10098288  0.12367829       0.006
   0.07465144 -0.10557301  0.12930003       0.006
   0.07465144 -0.10557301  0.12930003       0.006
   0.07154097 -0.10117413  0.13468754       0.006
   0.06843049 -0.09677526  0.14007504       0.006
   0.06532002 -0.09237638  0.14546254       0.006
   0.06220954 -0.08797750  0.15085004       0.006
   0.05909907 -0.08357863  0.15623754       0.006
   0.05598859 -0.07917975  0.16162504       0.006
   0.05287812 -0.07478087  0.16701254       0.006
   0.04976764 -0.07038200  0.17240005       0.006
   0.04665717 -0.06598312  0.17778755       0.006
   0.04354669 -0.06158424  0.18317505       0.006
   0.04043622 -0.05718537  0.18856255       0.006
   0.03732574 -0.05278649  0.19395005       0.006
   0.03732574 -0.05278649  0.19395005       0.006
   0.03317844 -0.04692132  0.19395005       0.006
   0.02903114 -0.04105616  0.19395005       0.006
   0.02488384 -0.03519099  0.19395005       0.006
   0.02073654 -0.02932582  0.19395005       0.006
   0.01658923 -0.02346065  0.19395005       0.006
   0.01244193 -0.01759548  0.19395005       0.006
   0.00829463 -0.01173032  0.19395005       0.006
   0.00414733 -0.00586515  0.19395005       0.006
   0.00000003  0.00000002  0.19395005       0.006
   0.00000003  0.00000002  0.19395005       0.006
   0.00000003  0.00000002  0.18619205       0.006
   0.00000003  0.00000002  0.17843405       0.006
   0.00000003  0.00000002  0.17067605       0.006
   0.00000002  0.00000002  0.16291804       0.006
   0.00000002  0.00000002  0.15516004       0.006
   0.00000002  0.00000002  0.14740204       0.006
   0.00000002  0.00000001  0.13964404       0.006
   0.00000002  0.00000001  0.13188603       0.006
   0.00000002  0.00000001  0.12412803       0.006
   0.00000002  0.00000001  0.11637003       0.006
   0.00000002  0.00000001  0.10861203       0.006
   0.00000002  0.00000001  0.10085403       0.006
   0.00000001  0.00000001  0.09309602       0.006
   0.00000001  0.00000001  0.08533802       0.006
   0.00000001  0.00000001  0.07758002       0.006
   0.00000001  0.00000001  0.06982202       0.006
   0.00000001  0.00000001  0.06206402       0.006
   0.00000001  0.00000001  0.05430601       0.006
   0.00000001  0.00000000  0.04654801       0.006
   0.00000001  0.00000000  0.03879001       0.006
   0.00000000  0.00000000  0.03103201       0.006
   0.00000000  0.00000000  0.02327401       0.006
   0.00000000  0.00000000  0.01551600       0.006
   0.00000000  0.00000000  0.00775800       0.006
   0.00000000  0.00000000  0.00000000       0.006
   0.00000000  0.00000000  0.00000000       0.006
   0.00373257  0.00263933  0.00646500       0.006
   0.00746514  0.00527865  0.01293000       0.006
   0.01119772  0.00791798  0.01939501       0.006
   0.01493029  0.01055731  0.02586001       0.006
   0.01866286  0.01319663  0.03232501       0.006
   0.02239543  0.01583596  0.03879001       0.006
   0.02612800  0.01847529  0.04525501       0.006
   0.02986058  0.02111461  0.05172001       0.006
   0.03359315  0.02375394  0.05818502       0.006
   0.03732572  0.02639327  0.06465002       0.006
   0.04105829  0.02903260  0.07111502       0.006
   0.04479087  0.03167192  0.07758002       0.006
   0.04852344  0.03431125  0.08404502       0.006
   0.05225601  0.03695058  0.09051002       0.006
   0.05598858  0.03958990  0.09697503       0.006
   0.05972115  0.04222923  0.10344003       0.006
   0.06345373  0.04486856  0.10990503       0.006
   0.06718630  0.04750788  0.11637003       0.006
   0.07091887  0.05014721  0.12283503       0.006
   0.07465144  0.05278654  0.12930003       0.006
   0.07465144  0.05278654  0.12930003       0.006
   0.07589563  0.04574834  0.13145503       0.006
   0.07713982  0.03871013  0.13361004       0.006
   0.07838401  0.03167193  0.13576504       0.006
   0.07962820  0.02463373  0.13792004       0.006
   0.08087240  0.01759553  0.14007504       0.006
   0.08211659  0.01055733  0.14223004       0.006
   0.08336078  0.00351913  0.14438504       0.006
   0.08460497 -0.00351908  0.14654004       0.006
   0.08584916 -0.01055728  0.14869504       0.006
   0.08709335 -0.01759548  0.15085004       0.006
   0.08833754 -0.02463368  0.15300504       0.006
   0.08958173 -0.03167188  0.15516004       0.006
   0.09082592 -0.03871009  0.15731504       0.006
   0.09207011 -0.04574829  0.15947004       0.006
   0.09331430 -0.05278649  0.16162504       0.006
   0.09331430 -0.05278649  0.16162504       0.006
   0.08709335 -0.05278649  0.16521671       0.006
   0.08087240 -0.05278649  0.16880838       0.006
   0.07465145 -0.05278649  0.17240005       0.006
   0.06843050 -0.05278649  0.17599171       0.006
   0.06220955 -0.05278649  0.17958338       0.006
   0.05598859 -0.05278649  0.18317505       0.006
   0.04976764 -0.05278649  0.18676672       0.006
   0.04354669 -0.05278649  0.19035838       0.006
   0.03732574 -0.05278649  0.19395005       0.006
   0.03732574 -0.05278649  0.19395005       0.006
   0.03952137 -0.04657631  0.19014711       0.006
   0.04171700 -0.04036613  0.18634417       0.006
   0.04391263 -0.03415596  0.18254122       0.006
   0.04610826 -0.02794578  0.17873828       0.006
   0.04830389 -0.02173560  0.17493534       0.006
   0.05049952 -0.01552542  0.17113240       0.006
   0.05269515 -0.00931524  0.16732946       0.006
   0.05489078 -0.00310507  0.16352651       0.006
   0.05708641  0.00310511  0.15972357       0.006
   0.05928204  0.00931529  0.15592063       0.006
   0.06147766  0.01552547  0.15211769       0.006
   0.06367329  0.02173565  0.14831475       0.006
   0.06586892  0.02794582  0.14451180       0.006
   0.06806455  0.03415600  0.14070886       0.006
   0.07026018  0.04036618  0.13690592       0.006
   0.07245581  0.04657636  0.13310298       0.006
   0.07465144  0.05278654  0.12930003       0.006
   0.07465144  0.05278654  0.12930003       0.006
   0.06967468  0.04926744  0.13361004       0.006
   0.06469792  0.04574834  0.13792004       0.006
   0.05972116  0.04222923  0.14223004       0.006
   0.05474440  0.03871013  0.14654004       0.006
   0.04976764  0.03519103  0.15085004       0.006
   0.04479088  0.03167193  0.15516004       0.006
   0.03981412  0.02815283  0.15947004       0.006
   0.03483736  0.02463373  0.16378004       0.006
   0.02986059  0.02111463  0.16809004       0.006
   0.02488383  0.01759553  0.17240005       0.006
   0.01990707  0.01407642  0.17671005       0.006
   0.01493031  0.01055732  0.18102005       0.006
   0.00995355  0.00703822  0.18533005       0.006
   0.00497679  0.00351912  0.18964005       0.006
   0.00000003  0.00000002  0.19395005       0.006
   0.09331430 -0.05278649  0.16162504       0.006
   0.09124065 -0.05865166  0.15803338       0.006
   0.08916700 -0.06451683  0.15444171       0.006
   0.08709335 -0.07038200  0.15085004       0.006
   0.08501970 -0.07624716  0.14725837       0.006
   0.08294605 -0.08211233  0.14366670       0.006
   0.08087240 -0.08797750  0.14007504       0.006
   0.07879874 -0.09384267  0.13648337       0.006
   0.07672509 -0.09970784  0.13289170       0.006
   0.07465144 -0.10557301  0.12930003       0.006
 
 k-points in reciprocal lattice and weights: Non SCF run along symmetry lines        
   0.00000000  0.00000000  0.00000000       0.006
   0.02173913  0.00000000  0.02173913       0.006
   0.04347826  0.00000000  0.04347826       0.006
   0.06521739  0.00000000  0.06521739       0.006
   0.08695652  0.00000000  0.08695652       0.006
   0.10869565  0.00000000  0.10869565       0.006
   0.13043478  0.00000000  0.13043478       0.006
   0.15217391  0.00000000  0.15217391       0.006
   0.17391304  0.00000000  0.17391304       0.006
   0.19565217  0.00000000  0.19565217       0.006
   0.21739130  0.00000000  0.21739130       0.006
   0.23913043  0.00000000  0.23913043       0.006
   0.26086957  0.00000000  0.26086957       0.006
   0.28260870  0.00000000  0.28260870       0.006
   0.30434783  0.00000000  0.30434783       0.006
   0.32608696  0.00000000  0.32608696       0.006
   0.34782609  0.00000000  0.34782609       0.006
   0.36956522  0.00000000  0.36956522       0.006
   0.39130435  0.00000000  0.39130435       0.006
   0.41304348  0.00000000  0.41304348       0.006
   0.43478261  0.00000000  0.43478261       0.006
   0.45652174  0.00000000  0.45652174       0.006
   0.47826087  0.00000000  0.47826087       0.006
   0.50000000  0.00000000  0.50000000       0.006
   0.50000000  0.00000000  0.50000000       0.006
   0.50000000  0.02083333  0.52083333       0.006
   0.50000000  0.04166667  0.54166667       0.006
   0.50000000  0.06250000  0.56250000       0.006
   0.50000000  0.08333333  0.58333333       0.006
   0.50000000  0.10416667  0.60416667       0.006
   0.50000000  0.12500000  0.62500000       0.006
   0.50000000  0.14583333  0.64583333       0.006
   0.50000000  0.16666667  0.66666667       0.006
   0.50000000  0.18750000  0.68750000       0.006
   0.50000000  0.20833333  0.70833333       0.006
   0.50000000  0.22916667  0.72916667       0.006
   0.50000000  0.25000000  0.75000000       0.006
   0.50000000  0.25000000  0.75000000       0.006
   0.48611111  0.26388889  0.75000000       0.006
   0.47222222  0.27777778  0.75000000       0.006
   0.45833333  0.29166667  0.75000000       0.006
   0.44444444  0.30555556  0.75000000       0.006
   0.43055556  0.31944444  0.75000000       0.006
   0.41666667  0.33333333  0.75000000       0.006
   0.40277778  0.34722222  0.75000000       0.006
   0.38888889  0.36111111  0.75000000       0.006
   0.37500000  0.37500000  0.75000000       0.006
   0.37500000  0.37500000  0.75000000       0.006
   0.36000000  0.36000000  0.72000000       0.006
   0.34500000  0.34500000  0.69000000       0.006
   0.33000000  0.33000000  0.66000000       0.006
   0.31500000  0.31500000  0.63000000       0.006
   0.30000000  0.30000000  0.60000000       0.006
   0.28500000  0.28500000  0.57000000       0.006
   0.27000000  0.27000000  0.54000000       0.006
   0.25500000  0.25500000  0.51000000       0.006
   0.24000000  0.24000000  0.48000000       0.006
   0.22500000  0.22500000  0.45000000       0.006
   0.21000000  0.21000000  0.42000000       0.006
   0.19500000  0.19500000  0.39000000       0.006
   0.18000000  0.18000000  0.36000000       0.006
   0.16500000  0.16500000  0.33000000       0.006
   0.15000000  0.15000000  0.30000000       0.006
   0.13500000  0.13500000  0.27000000       0.006
   0.12000000  0.12000000  0.24000000       0.006
   0.10500000  0.10500000  0.21000000       0.006
   0.09000000  0.09000000  0.18000000       0.006
   0.07500000  0.07500000  0.15000000       0.006
   0.06000000  0.06000000  0.12000000       0.006
   0.04500000  0.04500000  0.09000000       0.006
   0.03000000  0.03000000  0.06000000       0.006
   0.01500000  0.01500000  0.03000000       0.006
   0.00000000  0.00000000  0.00000000       0.006
   0.00000000  0.00000000  0.00000000       0.006
   0.02500000  0.02500000  0.02500000       0.006
   0.05000000  0.05000000  0.05000000       0.006
   0.07500000  0.07500000  0.07500000       0.006
   0.10000000  0.10000000  0.10000000       0.006
   0.12500000  0.12500000  0.12500000       0.006
   0.15000000  0.15000000  0.15000000       0.006
   0.17500000  0.17500000  0.17500000       0.006
   0.20000000  0.20000000  0.20000000       0.006
   0.22500000  0.22500000  0.22500000       0.006
   0.25000000  0.25000000  0.25000000       0.006
   0.27500000  0.27500000  0.27500000       0.006
   0.30000000  0.30000000  0.30000000       0.006
   0.32500000  0.32500000  0.32500000       0.006
   0.35000000  0.35000000  0.35000000       0.006
   0.37500000  0.37500000  0.37500000       0.006
   0.40000000  0.40000000  0.40000000       0.006
   0.42500000  0.42500000  0.42500000       0.006
   0.45000000  0.45000000  0.45000000       0.006
   0.47500000  0.47500000  0.47500000       0.006
   0.50000000  0.50000000  0.50000000       0.006
   0.50000000  0.50000000  0.50000000       0.006
   0.50833333  0.48333333  0.50833333       0.006
   0.51666667  0.46666667  0.51666667       0.006
   0.52500000  0.45000000  0.52500000       0.006
   0.53333333  0.43333333  0.53333333       0.006
   0.54166667  0.41666667  0.54166667       0.006
   0.55000000  0.40000000  0.55000000       0.006
   0.55833333  0.38333333  0.55833333       0.006
   0.56666667  0.36666667  0.56666667       0.006
   0.57500000  0.35000000  0.57500000       0.006
   0.58333333  0.33333333  0.58333333       0.006
   0.59166667  0.31666667  0.59166667       0.006
   0.60000000  0.30000000  0.60000000       0.006
   0.60833333  0.28333333  0.60833333       0.006
   0.61666667  0.26666667  0.61666667       0.006
   0.62500000  0.25000000  0.62500000       0.006
   0.62500000  0.25000000  0.62500000       0.006
   0.61111111  0.25000000  0.63888889       0.006
   0.59722222  0.25000000  0.65277778       0.006
   0.58333333  0.25000000  0.66666667       0.006
   0.56944444  0.25000000  0.68055556       0.006
   0.55555556  0.25000000  0.69444444       0.006
   0.54166667  0.25000000  0.70833333       0.006
   0.52777778  0.25000000  0.72222222       0.006
   0.51388889  0.25000000  0.73611111       0.006
   0.50000000  0.25000000  0.75000000       0.006
   0.50000000  0.25000000  0.75000000       0.006
   0.50000000  0.26470588  0.73529412       0.006
   0.50000000  0.27941176  0.72058824       0.006
   0.50000000  0.29411765  0.70588235       0.006
   0.50000000  0.30882353  0.69117647       0.006
   0.50000000  0.32352941  0.67647059       0.006
   0.50000000  0.33823529  0.66176471       0.006
   0.50000000  0.35294118  0.64705882       0.006
   0.50000000  0.36764706  0.63235294       0.006
   0.50000000  0.38235294  0.61764706       0.006
   0.50000000  0.39705882  0.60294118       0.006
   0.50000000  0.41176471  0.58823529       0.006
   0.50000000  0.42647059  0.57352941       0.006
   0.50000000  0.44117647  0.55882353       0.006
   0.50000000  0.45588235  0.54411765       0.006
   0.50000000  0.47058824  0.52941176       0.006
   0.50000000  0.48529412  0.51470588       0.006
   0.50000000  0.50000000  0.50000000       0.006
   0.50000000  0.50000000  0.50000000       0.006
   0.49166667  0.49166667  0.51666667       0.006
   0.48333333  0.48333333  0.53333333       0.006
   0.47500000  0.47500000  0.55000000       0.006
   0.46666667  0.46666667  0.56666667       0.006
   0.45833333  0.45833333  0.58333333       0.006
   0.45000000  0.45000000  0.60000000       0.006
   0.44166667  0.44166667  0.61666667       0.006
   0.43333333  0.43333333  0.63333333       0.006
   0.42500000  0.42500000  0.65000000       0.006
   0.41666667  0.41666667  0.66666667       0.006
   0.40833333  0.40833333  0.68333333       0.006
   0.40000000  0.40000000  0.70000000       0.006
   0.39166667  0.39166667  0.71666667       0.006
   0.38333333  0.38333333  0.73333333       0.006
   0.37500000  0.37500000  0.75000000       0.006
   0.62500000  0.25000000  0.62500000       0.006
   0.61111111  0.22222222  0.61111111       0.006
   0.59722222  0.19444444  0.59722222       0.006
   0.58333333  0.16666667  0.58333333       0.006
   0.56944444  0.13888889  0.56944444       0.006
   0.55555556  0.11111111  0.55555556       0.006
   0.54166667  0.08333333  0.54166667       0.006
   0.52777778  0.05555556  0.52777778       0.006
   0.51388889  0.02777778  0.51388889       0.006
   0.50000000  0.00000000  0.50000000       0.006
 
 position of ions in fractional coordinates (direct lattice) 
   0.25000000  0.25000000  0.25000000
   0.00000000  0.00000000  0.00000000
 
 position of ions in cartesian coordinates  (Angst):
   1.11629925  0.78934300  1.93348725
   0.00000000  0.00000000  0.00000000
 


--------------------------------------------------------------------------------------------------------


 k-point   1 :   0.0000 0.0000 0.0000  plane waves:    1639
 k-point   2 :   0.0217 0.0000 0.0217  plane waves:    1643
 k-point   3 :   0.0435 0.0000 0.0435  plane waves:    1659
 k-point   4 :   0.0652 0.0000 0.0652  plane waves:    1659
 k-point   5 :   0.0870 0.0000 0.0870  plane waves:    1659
 k-point   6 :   0.1087 0.0000 0.1087  plane waves:    1651
 k-point   7 :   0.1304 0.0000 0.1304  plane waves:    1647
 k-point   8 :   0.1522 0.0000 0.1522  plane waves:    1647
 k-point   9 :   0.1739 0.0000 0.1739  plane waves:    1647
 k-point  10 :   0.1957 0.0000 0.1957  plane waves:    1640
 k-point  11 :   0.2174 0.0000 0.2174  plane waves:    1640
 k-point  12 :   0.2391 0.0000 0.2391  plane waves:    1636
 k-point  13 :   0.2609 0.0000 0.2609  plane waves:    1636
 k-point  14 :   0.2826 0.0000 0.2826  plane waves:    1644
 k-point  15 :   0.3043 0.0000 0.3043  plane waves:    1652
 k-point  16 :   0.3261 0.0000 0.3261  plane waves:    1644
 k-point  17 :   0.3478 0.0000 0.3478  plane waves:    1640
 k-point  18 :   0.3696 0.0000 0.3696  plane waves:    1652
 k-point  19 :   0.3913 0.0000 0.3913  plane waves:    1652
 k-point  20 :   0.4130 0.0000 0.4130  plane waves:    1644
 k-point  21 :   0.4348 0.0000 0.4348  plane waves:    1644
 k-point  22 :   0.4565 0.0000 0.4565  plane waves:    1656
 k-point  23 :   0.4783 0.0000 0.4783  plane waves:    1660
 k-point  24 :   0.5000 0.0000 0.5000  plane waves:    1660
 k-point  25 :   0.5000 0.0000 0.5000  plane waves:    1660
 k-point  26 :   0.5000 0.0208 0.5208  plane waves:    1660
 k-point  27 :   0.5000 0.0417 0.5417  plane waves:    1652
 k-point  28 :   0.5000 0.0625 0.5625  plane waves:    1648
 k-point  29 :   0.5000 0.0833 0.5833  plane waves:    1656
 k-point  30 :   0.5000 0.1042 0.6042  plane waves:    1648
 k-point  31 :   0.5000 0.1250 0.6250  plane waves:    1648
 k-point  32 :   0.5000 0.1458 0.6458  plane waves:    1646
 k-point  33 :   0.5000 0.1667 0.6667  plane waves:    1646
 k-point  34 :   0.5000 0.1875 0.6875  plane waves:    1644
 k-point  35 :   0.5000 0.2083 0.7083  plane waves:    1638
 k-point  36 :   0.5000 0.2292 0.7292  plane waves:    1638
 k-point  37 :   0.5000 0.2500 0.7500  plane waves:    1628
 k-point  38 :   0.5000 0.2500 0.7500  plane waves:    1628
 k-point  39 :   0.4861 0.2639 0.7500  plane waves:    1638
 k-point  40 :   0.4722 0.2778 0.7500  plane waves:    1638
 k-point  41 :   0.4583 0.2917 0.7500  plane waves:    1645
 k-point  42 :   0.4444 0.3056 0.7500  plane waves:    1647
 k-point  43 :   0.4306 0.3194 0.7500  plane waves:    1647
 k-point  44 :   0.4167 0.3333 0.7500  plane waves:    1649
 k-point  45 :   0.4028 0.3472 0.7500  plane waves:    1647
 k-point  46 :   0.3889 0.3611 0.7500  plane waves:    1652
 k-point  47 :   0.3750 0.3750 0.7500  plane waves:    1666
 k-point  48 :   0.3750 0.3750 0.7500  plane waves:    1666
 k-point  49 :   0.3600 0.3600 0.7200  plane waves:    1650
 k-point  50 :   0.3450 0.3450 0.6900  plane waves:    1650
 k-point  51 :   0.3300 0.3300 0.6600  plane waves:    1652
 k-point  52 :   0.3150 0.3150 0.6300  plane waves:    1650
 k-point  53 :   0.3000 0.3000 0.6000  plane waves:    1642
 k-point  54 :   0.2850 0.2850 0.5700  plane waves:    1646
 k-point  55 :   0.2700 0.2700 0.5400  plane waves:    1634
 k-point  56 :   0.2550 0.2550 0.5100  plane waves:    1634
 k-point  57 :   0.2400 0.2400 0.4800  plane waves:    1642
 k-point  58 :   0.2250 0.2250 0.4500  plane waves:    1648
 k-point  59 :   0.2100 0.2100 0.4200  plane waves:    1652
 k-point  60 :   0.1950 0.1950 0.3900  plane waves:    1652
 k-point  61 :   0.1800 0.1800 0.3600  plane waves:    1642
 k-point  62 :   0.1650 0.1650 0.3300  plane waves:    1640
 k-point  63 :   0.1500 0.1500 0.3000  plane waves:    1632
 k-point  64 :   0.1350 0.1350 0.2700  plane waves:    1630
 k-point  65 :   0.1200 0.1200 0.2400  plane waves:    1646
 k-point  66 :   0.1050 0.1050 0.2100  plane waves:    1643
 k-point  67 :   0.0900 0.0900 0.1800  plane waves:    1647
 k-point  68 :   0.0750 0.0750 0.1500  plane waves:    1647
 k-point  69 :   0.0600 0.0600 0.1200  plane waves:    1655
 k-point  70 :   0.0450 0.0450 0.0900  plane waves:    1655
 k-point  71 :   0.0300 0.0300 0.0600  plane waves:    1651
 k-point  72 :   0.0150 0.0150 0.0300  plane waves:    1645
 k-point  73 :   0.0000 0.0000 0.0000  plane waves:    1639
 k-point  74 :   0.0000 0.0000 0.0000  plane waves:    1639
 k-point  75 :   0.0250 0.0250 0.0250  plane waves:    1648
 k-point  76 :   0.0500 0.0500 0.0500  plane waves:    1648
 k-point  77 :   0.0750 0.0750 0.0750  plane waves:    1654
 k-point  78 :   0.1000 0.1000 0.1000  plane waves:    1648
 k-point  79 :   0.1250 0.1250 0.1250  plane waves:    1654
 k-point  80 :   0.1500 0.1500 0.1500  plane waves:    1654
 k-point  81 :   0.1750 0.1750 0.1750  plane waves:    1648
 k-point  82 :   0.2000 0.2000 0.2000  plane waves:    1654
 k-point  83 :   0.2250 0.2250 0.2250  plane waves:    1654
 k-point  84 :   0.2500 0.2500 0.2500  plane waves:    1642
 k-point  85 :   0.2750 0.2750 0.2750  plane waves:    1642
 k-point  86 :   0.3000 0.3000 0.3000  plane waves:    1637
 k-point  87 :   0.3250 0.3250 0.3250  plane waves:    1634
 k-point  88 :   0.3500 0.3500 0.3500  plane waves:    1634
 k-point  89 :   0.3750 0.3750 0.3750  plane waves:    1640
 k-point  90 :   0.4000 0.4000 0.4000  plane waves:    1646
 k-point  91 :   0.4250 0.4250 0.4250  plane waves:    1652
 k-point  92 :   0.4500 0.4500 0.4500  plane waves:    1664
 k-point  93 :   0.4750 0.4750 0.4750  plane waves:    1664
 k-point  94 :   0.5000 0.5000 0.5000  plane waves:    1676
 k-point  95 :   0.5000 0.5000 0.5000  plane waves:    1676
 k-point  96 :   0.5083 0.4833 0.5083  plane waves:    1661
 k-point  97 :   0.5167 0.4667 0.5167  plane waves:    1659
 k-point  98 :   0.5250 0.4500 0.5250  plane waves:    1653
 k-point  99 :   0.5333 0.4333 0.5333  plane waves:    1651
 k-point 100 :   0.5417 0.4167 0.5417  plane waves:    1652
 k-point 101 :   0.5500 0.4000 0.5500  plane waves:    1644
 k-point 102 :   0.5583 0.3833 0.5583  plane waves:    1651
 k-point 103 :   0.5667 0.3667 0.5667  plane waves:    1649
 k-point 104 :   0.5750 0.3500 0.5750  plane waves:    1647
 k-point 105 :   0.5833 0.3333 0.5833  plane waves:    1645
 k-point 106 :   0.5917 0.3167 0.5917  plane waves:    1648
 k-point 107 :   0.6000 0.3000 0.6000  plane waves:    1652
 k-point 108 :   0.6083 0.2833 0.6083  plane waves:    1652
 k-point 109 :   0.6167 0.2667 0.6167  plane waves:    1654
 k-point 110 :   0.6250 0.2500 0.6250  plane waves:    1666
 k-point 111 :   0.6250 0.2500 0.6250  plane waves:    1666
 k-point 112 :   0.6111 0.2500 0.6389  plane waves:    1652
 k-point 113 :   0.5972 0.2500 0.6528  plane waves:    1647
 k-point 114 :   0.5833 0.2500 0.6667  plane waves:    1649
 k-point 115 :   0.5694 0.2500 0.6806  plane waves:    1647
 k-point 116 :   0.5556 0.2500 0.6944  plane waves:    1647
 k-point 117 :   0.5417 0.2500 0.7083  plane waves:    1645
 k-point 118 :   0.5278 0.2500 0.7222  plane waves:    1638
 k-point 119 :   0.5139 0.2500 0.7361  plane waves:    1638
 k-point 120 :   0.5000 0.2500 0.7500  plane waves:    1628
 k-point 121 :   0.5000 0.2500 0.7500  plane waves:    1628
 k-point 122 :   0.5000 0.2647 0.7353  plane waves:    1638
 k-point 123 :   0.5000 0.2794 0.7206  plane waves:    1638
 k-point 124 :   0.5000 0.2941 0.7059  plane waves:    1640
 k-point 125 :   0.5000 0.3088 0.6912  plane waves:    1648
 k-point 126 :   0.5000 0.3235 0.6765  plane waves:    1648
 k-point 127 :   0.5000 0.3382 0.6618  plane waves:    1652
 k-point 128 :   0.5000 0.3529 0.6471  plane waves:    1648
 k-point 129 :   0.5000 0.3676 0.6324  plane waves:    1642
 k-point 130 :   0.5000 0.3824 0.6176  plane waves:    1640
 k-point 131 :   0.5000 0.3971 0.6029  plane waves:    1648
 k-point 132 :   0.5000 0.4118 0.5882  plane waves:    1652
 k-point 133 :   0.5000 0.4265 0.5735  plane waves:    1646
 k-point 134 :   0.5000 0.4412 0.5588  plane waves:    1646
 k-point 135 :   0.5000 0.4559 0.5441  plane waves:    1654
 k-point 136 :   0.5000 0.4706 0.5294  plane waves:    1656
 k-point 137 :   0.5000 0.4853 0.5147  plane waves:    1660
 k-point 138 :   0.5000 0.5000 0.5000  plane waves:    1676
 k-point 139 :   0.5000 0.5000 0.5000  plane waves:    1676
 k-point 140 :   0.4917 0.4917 0.5167  plane waves:    1661
 k-point 141 :   0.4833 0.4833 0.5333  plane waves:    1659
 k-point 142 :   0.4750 0.4750 0.5500  plane waves:    1653
 k-point 143 :   0.4667 0.4667 0.5667  plane waves:    1651
 k-point 144 :   0.4583 0.4583 0.5833  plane waves:    1652
 k-point 145 :   0.4500 0.4500 0.6000  plane waves:    1644
 k-point 146 :   0.4417 0.4417 0.6167  plane waves:    1651
 k-point 147 :   0.4333 0.4333 0.6333  plane waves:    1649
 k-point 148 :   0.4250 0.4250 0.6500  plane waves:    1647
 k-point 149 :   0.4167 0.4167 0.6667  plane waves:    1645
 k-point 150 :   0.4083 0.4083 0.6833  plane waves:    1648
 k-point 151 :   0.4000 0.4000 0.7000  plane waves:    1652
 k-point 152 :   0.3917 0.3917 0.7167  plane waves:    1652
 k-point 153 :   0.3833 0.3833 0.7333  plane waves:    1654
 k-point 154 :   0.3750 0.3750 0.7500  plane waves:    1666
 k-point 155 :   0.6250 0.2500 0.6250  plane waves:    1666
 k-point 156 :   0.6111 0.2222 0.6111  plane waves:    1654
 k-point 157 :   0.5972 0.1944 0.5972  plane waves:    1650
 k-point 158 :   0.5833 0.1667 0.5833  plane waves:    1654
 k-point 159 :   0.5694 0.1389 0.5694  plane waves:    1652
 k-point 160 :   0.5556 0.1111 0.5556  plane waves:    1644
 k-point 161 :   0.5417 0.0833 0.5417  plane waves:    1648
 k-point 162 :   0.5278 0.0556 0.5278  plane waves:    1650
 k-point 163 :   0.5139 0.0278 0.5139  plane waves:    1660
 k-point 164 :   0.5000 0.0000 0.5000  plane waves:    1660

 maximum and minimum number of plane-waves per node :      1676     1628

 maximum number of plane-waves:      1676
 maximum index in each direction: 
   IXMAX=    8   IYMAX=    8   IZMAX=    8
   IXMIN=   -8   IYMIN=   -8   IZMIN=   -8


 serial   3D FFT for wavefunctions
 parallel 3D FFT for charge:
    minimum data exchange during FFTs selected (reduces bandwidth)


 total amount of memory used by VASP MPI-rank0    58782. kBytes
=======================================================================

   base      :      30000. kBytes
   nonlr-proj:       1161. kBytes
   fftplans  :       3408. kBytes
   grid      :       6448. kBytes
   one-center:          6. kBytes
   wavefun   :      17759. kBytes
 
     INWAV:  cpu time    0.0000: real time    0.0000
 initial charge density was supplied:
 number of electron       8.0000000 magnetization 
 keeping initial charge density in first step


--------------------------------------------------------------------------------------------------------


 Maximum index for non-local projection operator         6603
 Maximum index for augmentation-charges         9303 (set IRDMAX)


--------------------------------------------------------------------------------------------------------


 First call to EWALD:  gamma=   0.514
 Maximum number of real-space cells 3x 3x 3
 Maximum number of reciprocal cells 3x 3x 3

    FEWALD:  cpu time    0.0010: real time    0.0010


--------------------------------------- Iteration      1(   1)  ---------------------------------------


    POTLOK:  cpu time    0.0449: real time    0.0453
    SETDIJ:  cpu time    0.0417: real time    0.0417
     EDDAV:  cpu time    5.9980: real time    6.0129
       DOS:  cpu time    0.0023: real time    0.0088
    --------------------------------------------
      LOOP:  cpu time    6.0869: real time    6.1089

 eigenvalue-minimisations  :  5248
 total energy-change (2. order) : 0.9195375E+01  (-0.3577037E+03)
 number of electron       8.0000000 magnetization 
 augmentation part        8.0000000 magnetization 

 Free energy of the ion-electron system (eV)
  ---------------------------------------------------
  alpha Z        PSCENC =         3.29317992
  Ewald energy   TEWEN  =      -226.94489173
  -Hartree energ DENC   =       -15.17364114
  -exchange      EXHF   =         0.00000000
  -V(xc)+E(xc)   XCENC  =       -18.06134870
  PAW double counting   =       828.15318592     -793.17190106
  entropy T*S    EENTRO =        -0.00001373
  eigenvalues    EBANDS =        24.96758355
  atomic energy  EATOM  =       206.13322186
  Solvation  Ediel_sol  =         0.00000000
  ---------------------------------------------------
  free energy    TOTEN  =         9.19537487 eV

  energy without entropy =        9.19538860  energy(sigma->0) =        9.19538173


--------------------------------------------------------------------------------------------------------




--------------------------------------- Iteration      1(   2)  ---------------------------------------


     EDDAV:  cpu time    6.8990: real time    6.9133
       DOS:  cpu time    0.0005: real time    0.0005
    --------------------------------------------
      LOOP:  cpu time    6.8994: real time    6.9137

 eigenvalue-minimisations  :  6944
 total energy-change (2. order) :-0.1829752E+02  (-0.1715245E+02)
 number of electron       8.0000000 magnetization 
 augmentation part        8.0000000 magnetization 

 Free energy of the ion-electron system (eV)
  ---------------------------------------------------
  alpha Z        PSCENC =         3.29317992
  Ewald energy   TEWEN  =      -226.94489173
  -Hartree energ DENC   =       -15.17364114
  -exchange      EXHF   =         0.00000000
  -V(xc)+E(xc)   XCENC  =       -18.06134870
  PAW double counting   =       828.15318592     -793.17190106
  entropy T*S    EENTRO =        -0.00000000
  eigenvalues    EBANDS =         6.67005225
  atomic energy  EATOM  =       206.13322186
  Solvation  Ediel_sol  =         0.00000000
  ---------------------------------------------------
  free energy    TOTEN  =        -9.10214270 eV

  energy without entropy =       -9.10214270  energy(sigma->0) =       -9.10214270


--------------------------------------------------------------------------------------------------------




--------------------------------------- Iteration      1(   3)  ---------------------------------------


     EDDAV:  cpu time    7.0807: real time    7.0970
       DOS:  cpu time    0.0004: real time    0.0004
    --------------------------------------------
      LOOP:  cpu time    7.0812: real time    7.0975

 eigenvalue-minimisations  :  7040
 total energy-change (2. order) :-0.6174583E+00  (-0.6160754E+00)
 number of electron       8.0000000 magnetization 
 augmentation part        8.0000000 magnetization 

 Free energy of the ion-electron system (eV)
  ---------------------------------------------------
  alpha Z        PSCENC =         3.29317992
  Ewald energy   TEWEN  =      -226.94489173
  -Hartree energ DENC   =       -15.17364114
  -exchange      EXHF   =         0.00000000
  -V(xc)+E(xc)   XCENC  =       -18.06134870
  PAW double counting   =       828.15318592     -793.17190106
  entropy T*S    EENTRO =        -0.00000000
  eigenvalues    EBANDS =         6.05259397
  atomic energy  EATOM  =       206.13322186
  Solvation  Ediel_sol  =         0.00000000
  ---------------------------------------------------
  free energy    TOTEN  =        -9.71960097 eV

  energy without entropy =       -9.71960097  energy(sigma->0) =       -9.71960097


--------------------------------------------------------------------------------------------------------




--------------------------------------- Iteration      1(   4)  ---------------------------------------


     EDDAV:  cpu time    6.5604: real time    6.5714
       DOS:  cpu time    0.0006: real time    0.0006
    --------------------------------------------
      LOOP:  cpu time    6.5610: real time    6.5719

 eigenvalue-minimisations  :  6608
 total energy-change (2. order) :-0.3424906E-02  (-0.3424735E-02)
 number of electron       8.0000000 magnetization 
 augmentation part        8.0000000 magnetization 

 Free energy of the ion-electron system (eV)
  ---------------------------------------------------
  alpha Z        PSCENC =         3.29317992
  Ewald energy   TEWEN  =      -226.94489173
  -Hartree energ DENC   =       -15.17364114
  -exchange      EXHF   =         0.00000000
  -V(xc)+E(xc)   XCENC  =       -18.06134870
  PAW double counting   =       828.15318592     -793.17190106
  entropy T*S    EENTRO =        -0.00000000
  eigenvalues    EBANDS =         6.04916907
  atomic energy  EATOM  =       206.13322186
  Solvation  Ediel_sol  =         0.00000000
  ---------------------------------------------------
  free energy    TOTEN  =        -9.72302588 eV

  energy without entropy =       -9.72302588  energy(sigma->0) =       -9.72302588


--------------------------------------------------------------------------------------------------------




--------------------------------------- Iteration      1(   5)  ---------------------------------------


     EDDAV:  cpu time    7.1819: real time    7.2073
       DOS:  cpu time    0.0004: real time    0.0004
    --------------------------------------------
      LOOP:  cpu time    7.1824: real time    7.2077

 eigenvalue-minimisations  :  7240
 total energy-change (2. order) :-0.2801485E-04  (-0.2801463E-04)
 number of electron       8.0000000 magnetization 
 augmentation part        8.0000000 magnetization 

 Free energy of the ion-electron system (eV)
  ---------------------------------------------------
  alpha Z        PSCENC =         3.29317992
  Ewald energy   TEWEN  =      -226.94489173
  -Hartree energ DENC   =       -15.17364114
  -exchange      EXHF   =         0.00000000
  -V(xc)+E(xc)   XCENC  =       -18.06134870
  PAW double counting   =       828.15318592     -793.17190106
  entropy T*S    EENTRO =        -0.00000000
  eigenvalues    EBANDS =         6.04914105
  atomic energy  EATOM  =       206.13322186
  Solvation  Ediel_sol  =         0.00000000
  ---------------------------------------------------
  free energy    TOTEN  =        -9.72305389 eV

  energy without entropy =       -9.72305389  energy(sigma->0) =       -9.72305389


--------------------------------------------------------------------------------------------------------




--------------------------------------- Iteration      1(   6)  ---------------------------------------


     EDDAV:  cpu time    6.3203: real time    6.3378
       DOS:  cpu time    0.0005: real time    0.0005
    --------------------------------------------
      LOOP:  cpu time    6.3208: real time    6.3383

 eigenvalue-minimisations  :  6000
 total energy-change (2. order) :-0.2955303E-06  (-0.2955420E-06)
 number of electron       8.0000000 magnetization 
 augmentation part        8.0000000 magnetization 

 Free energy of the ion-electron system (eV)
  ---------------------------------------------------
  alpha Z        PSCENC =         3.29317992
  Ewald energy   TEWEN  =      -226.94489173
  -Hartree energ DENC   =       -15.17364114
  -exchange      EXHF   =         0.00000000
  -V(xc)+E(xc)   XCENC  =       -18.06134870
  PAW double counting   =       828.15318592     -793.17190106
  entropy T*S    EENTRO =        -0.00000000
  eigenvalues    EBANDS =         6.04914076
  atomic energy  EATOM  =       206.13322186
  Solvation  Ediel_sol  =         0.00000000
  ---------------------------------------------------
  free energy    TOTEN  =        -9.72305419 eV

  energy without entropy =       -9.72305419  energy(sigma->0) =       -9.72305419


--------------------------------------------------------------------------------------------------------




 average (electrostatic) potential at core
  the test charge radii are     0.9892
  (the norm of the test charge is              1.0000)
       1 -83.4834       2 -83.4834
 
 
 
 E-fermi :   5.7018     XC(G=0):  -9.3272     alpha+bet :-11.7317

 Fermi energy:         5.7017881733

 k-point     1 :       0.0000    0.0000    0.0000
  band No.  band energies     occupation 
      1      -6.1987      2.00000
      2       5.6162      2.00000
      3       5.6162      2.00000
      4       5.6162      2.00000
      5       8.1731      0.00000
      6       8.1731      0.00000
      7       8.1731      0.00000
      8       8.7493      0.00000
      9      13.3253      0.00000
     10      13.3253      0.00000
     11      13.4934      0.00000
     12      16.7985      0.00000
     13      16.7985      0.00000
     14      16.7985      0.00000
     15      20.8898      0.00000
     16      28.4714      0.00000

 k-point     2 :       0.0217    0.0000    0.0217
  band No.  band energies     occupation 
      1      -6.1906      2.00000
      2       5.5575      2.00000
      3       5.5816      2.00000
      4       5.5816      2.00000
      5       8.1529      0.00000
      6       8.2177      0.00000
      7       8.2177      0.00000
      8       8.8069      0.00000
      9      13.2586      0.00000
     10      13.3344      0.00000
     11      13.5297      0.00000
     12      16.8127      0.00000
     13      16.8127      0.00000
     14      16.8453      0.00000
     15      20.9492      0.00000
     16      28.3551      0.00000

 k-point     3 :       0.0435    0.0000    0.0435
  band No.  band energies     occupation 
      1      -6.1662      2.00000
      2       5.3934      2.00000
      3       5.4846      2.00000
      4       5.4846      2.00000
      5       8.0941      0.00000
      6       8.3448      0.00000
      7       8.3448      0.00000
      8       8.9658      0.00000
      9      13.0750      0.00000
     10      13.3614      0.00000
     11      13.6369      0.00000
     12      16.8553      0.00000
     13      16.8553      0.00000
     14      16.9724      0.00000
     15      21.1256      0.00000
     16      27.9943      0.00000

 k-point     4 :       0.0652    0.0000    0.0652
  band No.  band energies     occupation 
      1      -6.1256      2.00000
      2       5.1505      2.00000
      3       5.3410      2.00000
      4       5.3410      2.00000
      5       8.0017      0.00000
      6       8.5383      0.00000
      7       8.5383      0.00000
      8       9.1938      0.00000
      9      12.8138      0.00000
     10      13.4066      0.00000
     11      13.8099      0.00000
     12      16.9262      0.00000
     13      16.9263      0.00000
     14      17.1515      0.00000
     15      21.4131      0.00000
     16      27.5192      0.00000

 k-point     5 :       0.0870    0.0000    0.0870
  band No.  band energies     occupation 
      1      -6.0688      2.00000
      2       4.8549      2.00000
      3       5.1675      2.00000
      4       5.1675      2.00000
      5       7.8826      0.00000
      6       8.7815      0.00000
      7       8.7815      0.00000
      8       9.4524      0.00000
      9      12.5218      0.00000
     10      13.4697      0.00000
     11      14.0413      0.00000
     12      17.0253      0.00000
     13      17.0253      0.00000
     14      17.3573      0.00000
     15      21.8014      0.00000
     16      26.9813      0.00000

 k-point     6 :       0.1087    0.0000    0.1087
  band No.  band energies     occupation 
      1      -5.9959      2.00000
      2       4.5255      2.00000
      3       4.9774      2.00000
      4       4.9774      2.00000
      5       7.7441      0.00000
      6       9.0608      0.00000
      7       9.0608      0.00000
      8       9.6969      0.00000
      9      12.2509      0.00000
     10      13.5509      0.00000
     11      14.3235      0.00000
     12      17.1520      0.00000
     13      17.1520      0.00000
     14      17.5752      0.00000
     15      22.2768      0.00000
     16      26.4147      0.00000

 k-point     7 :       0.1304    0.0000    0.1304
  band No.  band energies     occupation 
      1      -5.9069      2.00000
      2       4.1747      2.00000
      3       4.7801      2.00000
      4       4.7801      2.00000
      5       7.5933      0.00000
      6       9.3665      0.00000
      7       9.3665      0.00000
      8       9.8680      0.00000
      9      12.0666      0.00000
     10      13.6501      0.00000
     11      14.6486      0.00000
     12      17.3059      0.00000
     13      17.3059      0.00000
     14      17.8000      0.00000
     15      22.8233      0.00000
     16      25.8360      0.00000

 k-point     8 :       0.1522    0.0000    0.1522
  band No.  band energies     occupation 
      1      -5.8020      2.00000
      2       3.8101      2.00000
      3       4.5819      2.00000
      4       4.5819      2.00000
      5       7.4362      0.00000
      6       9.6920      0.00000
      7       9.6920      0.00000
      8       9.8983      0.00000
      9      12.0406      0.00000
     10      13.7673      0.00000
     11      15.0098      0.00000
     12      17.4859      0.00000
     13      17.4859      0.00000
     14      18.0320      0.00000
     15      23.4243      0.00000
     16      25.2558      0.00000

 k-point     9 :       0.1739    0.0000    0.1739
  band No.  band energies     occupation 
      1      -5.6812      2.00000
      2       3.4367      2.00000
      3       4.3871      2.00000
      4       4.3871      2.00000
      5       7.2781      0.00000
      6       9.7681      0.00000
      7      10.0328      0.00000
      8      10.0328      0.00000
      9      12.1958      0.00000
     10      13.9025      0.00000
     11      15.4006      0.00000
     12      17.6902      0.00000
     13      17.6902      0.00000
     14      18.2739      0.00000
     15      24.0635      0.00000
     16      24.6822      0.00000

 k-point    10 :       0.1957    0.0000    0.1957
  band No.  band energies     occupation 
      1      -5.5448      2.00000
      2       3.0576      2.00000
      3       4.1986      2.00000
      4       4.1986      2.00000
      5       7.1228      0.00000
      6       9.5257      0.00000
      7      10.3855      0.00000
      8      10.3855      0.00000
      9      12.4858      0.00000
     10      14.0556      0.00000
     11      15.8152      0.00000
     12      17.9161      0.00000
     13      17.9161      0.00000
     14      18.5290      0.00000
     15      24.1218      0.00000
     16      24.1226      0.00000

 k-point    11 :       0.2174    0.0000    0.2174
  band No.  band energies     occupation 
      1      -5.3928      2.00000
      2       2.6750      2.00000
      3       4.0186      2.00000
      4       4.0186      2.00000
      5       6.9738      0.00000
      6       9.2282      0.00000
      7      10.7479      0.00000
      8      10.7479      0.00000
      9      12.8550      0.00000
     10      14.2266      0.00000
     11      16.2479      0.00000
     12      18.1586      0.00000
     13      18.1586      0.00000
     14      18.8005      0.00000
     15      23.5823      0.00000
     16      23.5824      0.00000

 k-point    12 :       0.2391    0.0000    0.2391
  band No.  band energies     occupation 
      1      -5.2255      2.00000
      2       2.2904      2.00000
      3       3.8486      2.00000
      4       3.8486      2.00000
      5       6.8337      0.00000
      6       8.9113      0.00000
      7      11.1182      0.00000
      8      11.1182      0.00000
      9      13.2680      0.00000
     10      14.4156      0.00000
     11      16.6927      0.00000
     12      18.4095      0.00000
     13      18.4095      0.00000
     14      19.0914      0.00000
     15      23.0738      0.00000
     16      23.0738      0.00000

 k-point    13 :       0.2609    0.0000    0.2609
  band No.  band energies     occupation 
      1      -5.0431      2.00000
      2       1.9048      2.00000
      3       3.6896      2.00000
      4       3.6896      2.00000
      5       6.7047      0.00000
      6       8.5941      0.00000
      7      11.4951      0.00000
      8      11.4951      0.00000
      9      13.7057      0.00000
     10      14.6224      0.00000
     11      17.1424      0.00000
     12      18.6540      0.00000
     13      18.6540      0.00000
     14      19.4040      0.00000
     15      22.6124      0.00000
     16      22.6125      0.00000

 k-point    14 :       0.2826    0.0000    0.2826
  band No.  band energies     occupation 
      1      -4.8457      2.00000
      2       1.5195      2.00000
      3       3.5426      2.00000
      4       3.5426      2.00000
      5       6.5884      0.00000
      6       8.2869      0.00000
      7      11.8777      0.00000
      8      11.8777      0.00000
      9      14.1572      0.00000
     10      14.8470      0.00000
     11      17.5883      0.00000
     12      18.8653      0.00000
     13      18.8653      0.00000
     14      19.7404      0.00000
     15      22.2253      0.00000
     16      22.2254      0.00000

 k-point    15 :       0.3043    0.0000    0.3043
  band No.  band energies     occupation 
      1      -4.6337      2.00000
      2       1.1351      2.00000
      3       3.4082      2.00000
      4       3.4082      2.00000
      5       6.4863      0.00000
      6       7.9956      0.00000
      7      12.2653      0.00000
      8      12.2653      0.00000
      9      14.6154      0.00000
     10      15.0893      0.00000
     11      18.0184      0.00000
     12      19.0000      0.00000
     13      19.0000      0.00000
     14      20.1020      0.00000
     15      21.9564      0.00000
     16      21.9564      0.00000

 k-point    16 :       0.3261    0.0000    0.3261
  band No.  band energies     occupation 
      1      -4.4074      2.00000
      2       0.7527      2.00000
      3       3.2868      2.00000
[...]
      1      -3.6635      2.00000
      2      -1.1451      2.00000
      3       2.9477      2.00000
      4       4.0523      2.00000
      5       7.7840      0.00000
      6       9.4003      0.00000
      7       9.8732      0.00000
      8      13.2496      0.00000
      9      14.4231      0.00000
     10      15.0204      0.00000
     11      16.6726      0.00000
     12      18.2326      0.00000
     13      18.8892      0.00000
     14      20.1757      0.00000
     15      24.1532      0.00000
     16      24.8692      0.00000

 k-point   146 :       0.4417    0.4417    0.6167
  band No.  band energies     occupation 
      1      -3.5720      2.00000
      2      -1.1196      2.00000
      3       2.6234      2.00000
      4       3.9463      2.00000
      5       7.6991      0.00000
      6       9.7675      0.00000
      7      10.1661      0.00000
      8      12.8642      0.00000
      9      14.4368      0.00000
     10      14.8312      0.00000
     11      16.8749      0.00000
     12      18.5248      0.00000
     13      19.1619      0.00000
     14      20.6992      0.00000
     15      23.8604      0.00000
     16      24.7921      0.00000

 k-point   147 :       0.4333    0.4333    0.6333
  band No.  band energies     occupation 
      1      -3.4673      2.00000
      2      -1.1009      2.00000
      3       2.3171      2.00000
      4       3.8391      2.00000
      5       7.5837      0.00000
      6      10.1793      0.00000
      7      10.4877      0.00000
      8      12.4572      0.00000
      9      14.4157      0.00000
     10      14.6537      0.00000
     11      17.1919      0.00000
     12      18.8163      0.00000
     13      19.4144      0.00000
     14      21.2390      0.00000
     15      23.5442      0.00000
     16      24.7127      0.00000

 k-point   148 :       0.4250    0.4250    0.6500
  band No.  band energies     occupation 
      1      -3.3501      2.00000
      2      -1.0950      2.00000
      3       2.0387      2.00000
      4       3.7337      2.00000
      5       7.4577      0.00000
      6      10.6116      0.00000
      7      10.8341      0.00000
      8      12.0560      0.00000
      9      14.3523      0.00000
     10      14.4891      0.00000
     11      17.6062      0.00000
     12      19.1040      0.00000
     13      19.6461      0.00000
     14      21.7838      0.00000
     15      23.2223      0.00000
     16      24.3413      0.00000

 k-point   149 :       0.4167    0.4167    0.6667
  band No.  band energies     occupation 
      1      -3.2213      2.00000
      2      -1.1092      2.00000
      3       1.7986      2.00000
      4       3.6324      2.00000
      5       7.3319      0.00000
      6      11.0227      0.00000
      7      11.2015      0.00000
      8      11.7005      0.00000
      9      14.2579      0.00000
     10      14.3392      0.00000
     11      18.0954      0.00000
     12      19.3845      0.00000
     13      19.8537      0.00000
     14      22.3087      0.00000
     15      22.9217      0.00000
     16      23.7539      0.00000

 k-point   150 :       0.4083    0.4083    0.6833
  band No.  band energies     occupation 
      1      -3.0825      2.00000
      2      -1.1508      2.00000
      3       1.6071      2.00000
      4       3.5370      2.00000
      5       7.2122      0.00000
      6      11.0973      0.00000
      7      11.5852      0.00000
      8      11.7046      0.00000
      9      14.1444      0.00000
     10      14.2064      0.00000
     11      18.6405      0.00000
     12      19.6544      0.00000
     13      20.0320      0.00000
     14      22.4783      0.00000
     15      22.9741      0.00000
     16      23.1499      0.00000

 k-point   151 :       0.4000    0.4000    0.7000
  band No.  band energies     occupation 
      1      -2.9363      2.00000
      2      -1.2242      2.00000
      3       1.4723      2.00000
      4       3.4491      2.00000
      5       7.1023      0.00000
      6      10.7771      0.00000
      7      11.9784      0.00000
      8      12.1254      0.00000
      9      14.0203      0.00000
     10      14.0956      0.00000
     11      19.2237      0.00000
     12      19.9095      0.00000
     13      20.1761      0.00000
     14      22.1992      0.00000
     15      22.5384      0.00000
     16      23.3940      0.00000

 k-point   152 :       0.3917    0.3917    0.7167
  band No.  band energies     occupation 
      1      -2.7882      2.00000
      2      -1.3272      2.00000
      3       1.3979      2.00000
      4       3.3698      2.00000
      5       7.0044      0.00000
      6      10.4193      0.00000
      7      12.3685      0.00000
      8      12.6045      0.00000
      9      13.8918      0.00000
     10      14.0180      0.00000
     11      19.8087      0.00000
     12      20.1434      0.00000
     13      20.2995      0.00000
     14      21.8906      0.00000
     15      21.9315      0.00000
     16      23.1148      0.00000

 k-point   153 :       0.3833    0.3833    0.7333
  band No.  band energies     occupation 
      1      -2.6494      2.00000
      2      -1.4457      2.00000
      3       1.3813      2.00000
      4       3.3001      2.00000
      5       6.9201      0.00000
      6      10.0672      0.00000
      7      12.7272      0.00000
      8      13.0955      0.00000
      9      13.7647      0.00000
     10      13.9998      0.00000
     11      20.1457      0.00000
     12      20.3391      0.00000
     13      20.6237      0.00000
     14      21.3499      0.00000
     15      21.5809      0.00000
     16      22.7541      0.00000

 k-point   154 :       0.3750    0.3750    0.7500
  band No.  band energies     occupation 
      1      -2.5451      2.00000
      2      -1.5479      2.00000
      3       1.4158      2.00000
      4       3.2406      2.00000
      5       6.8503      0.00000
      6       9.7283      0.00000
      7      12.9971      0.00000
      8      13.5325      0.00000
      9      13.6991      0.00000
     10      14.0966      0.00000
     11      20.1180      0.00000
     12      20.3821      0.00000
     13      20.9106      0.00000
     14      21.1468      0.00000
     15      21.3552      0.00000
     16      22.4606      0.00000

 k-point   155 :       0.6250    0.2500    0.6250
  band No.  band energies     occupation 
      1      -2.5451      2.00000
      2      -1.5479      2.00000
      3       1.4158      2.00000
      4       3.2407      2.00000
      5       6.8503      0.00000
      6       9.7283      0.00000
      7      12.9971      0.00000
      8      13.5325      0.00000
      9      13.6991      0.00000
     10      14.0966      0.00000
     11      20.1180      0.00000
     12      20.3821      0.00000
     13      20.9106      0.00000
     14      21.1468      0.00000
     15      21.3552      0.00000
     16      22.4606      0.00000

 k-point   156 :       0.6111    0.2222    0.6111
  band No.  band energies     occupation 
      1      -2.4338      2.00000
      2      -1.6698      2.00000
      3       1.5299      2.00000
      4       3.1549      2.00000
      5       6.7514      0.00000
      6       9.1851      0.00000
      7      13.3372      0.00000
      8      13.8919      0.00000
      9      13.9711      0.00000
     10      14.3968      0.00000
     11      19.9032      0.00000
     12      20.0985      0.00000
     13      20.5198      0.00000
     14      21.4445      0.00000
     15      21.4780      0.00000
     16      22.2118      0.00000

 k-point   157 :       0.5972    0.1944    0.5972
  band No.  band energies     occupation 
      1      -2.3441      2.00000
      2      -1.7775      2.00000
      3       1.6797      2.00000
      4       3.0784      2.00000
      5       6.6630      0.00000
      6       8.6622      0.00000
      7      13.6824      0.00000
      8      14.2432      0.00000
      9      14.2631      0.00000
     10      14.7060      0.00000
     11      19.6615      0.00000
     12      19.8070      0.00000
     13      20.1256      0.00000
     14      21.1254      0.00000
     15      21.8468      0.00000
     16      22.3787      0.00000

 k-point   158 :       0.5833    0.1667    0.5833
  band No.  band energies     occupation 
      1      -2.2744      2.00000
      2      -1.8710      2.00000
      3       1.8598      2.00000
      4       3.0113      2.00000
      5       6.5856      0.00000
      6       8.1653      0.00000
      7      14.0295      0.00000
      8      14.5112      0.00000
      9      14.6434      0.00000
     10      15.0215      0.00000
     11      19.4137      0.00000
     12      19.5087      0.00000
     13      19.7321      0.00000
     14      20.6598      0.00000
     15      22.2349      0.00000
     16      22.7027      0.00000

 k-point   159 :       0.5694    0.1389    0.5694
  band No.  band energies     occupation 
      1      -2.2223      2.00000
      2      -1.9501      2.00000
      3       2.0615      2.00000
      4       2.9540      2.00000
      5       6.5195      0.00000
      6       7.7012      0.00000
      7      14.3742      0.00000
      8      14.7699      0.00000
      9      15.0296      0.00000
     10      15.3399      0.00000
     11      19.1702      0.00000
     12      19.2060      0.00000
     13      19.3453      0.00000
     14      20.1738      0.00000
     15      22.6349      0.00000
     16      23.0584      0.00000

 k-point   160 :       0.5556    0.1111    0.5556
  band No.  band energies     occupation 
      1      -2.1848      2.00000
      2      -2.0149      2.00000
      3       2.2730      2.00000
      4       2.9068      2.00000
      5       6.4651      0.00000
      6       7.2796      0.00000
      7      14.7090      0.00000
      8      15.0115      0.00000
      9      15.4166      0.00000
     10      15.6555      0.00000
     11      18.9035      0.00000
     12      18.9401      0.00000
     13      18.9736      0.00000
     14      19.6967      0.00000
     15      23.0409      0.00000
     16      23.4148      0.00000

 k-point   161 :       0.5417    0.0833    0.5417
  band No.  band energies     occupation 
      1      -2.1589      2.00000
      2      -2.0654      2.00000
      3       2.4780      2.00000
      4       2.8699      2.00000
      5       6.4226      0.00000
      6       6.9141      0.00000
      7      15.0217      0.00000
      8      15.2258      0.00000
      9      15.7943      0.00000
     10      15.9593      0.00000
     11      18.6101      0.00000
     12      18.6309      0.00000
     13      18.7346      0.00000
     14      19.2453      0.00000
     15      23.4448      0.00000
     16      23.7497      0.00000

 k-point   162 :       0.5278    0.0556    0.5278
  band No.  band energies     occupation 
      1      -2.1424      2.00000
      2      -2.1014      2.00000
      3       2.6549      2.00000
      4       2.8434      2.00000
      5       6.3921      0.00000
      6       6.6242      0.00000
      7      15.2907      0.00000
      8      15.3984      0.00000
      9      16.1421      0.00000
     10      16.2332      0.00000
     11      18.3396      0.00000
     12      18.3436      0.00000
     13      18.5682      0.00000
     14      18.8437      0.00000
     15      23.8295      0.00000
     16      24.0332      0.00000

 k-point   163 :       0.5139    0.0278    0.5139
  band No.  band energies     occupation 
      1      -2.1332      2.00000
      2      -2.1230      2.00000
      3       2.7777      2.00000
      4       2.8275      2.00000
      5       6.3738      0.00000
      6       6.4343      0.00000
      7      15.4818      0.00000
      8      15.5125      0.00000
      9      16.4134      0.00000
     10      16.4412      0.00000
     11      18.1348      0.00000
     12      18.1400      0.00000
     13      18.4577      0.00000
     14      18.5396      0.00000
     15      24.1507      0.00000
     16      24.2255      0.00000

 k-point   164 :       0.5000    0.0000    0.5000
  band No.  band energies     occupation 
      1      -2.1302      2.00000
      2      -2.1302      2.00000
      3       2.8222      2.00000
      4       2.8222      2.00000
      5       6.3677      0.00000
      6       6.3677      0.00000
      7      15.5527      0.00000
      8      15.5527      0.00000
      9      16.5233      0.00000
     10      16.5233      0.00000
     11      18.0593      0.00000
     12      18.0593      0.00000
     13      18.4187      0.00000
     14      18.4187      0.00000
     15      24.2927      0.00000
     16      24.2930      0.00000


--------------------------------------------------------------------------------------------------------


 soft charge-density along one line, spin component           1
         0         1         2         3         4         5         6         7         8         9
 total charge-density along one line
 
 pseudopotential strength for first ion, spin component:           1
 18.437  25.723  -0.000  -0.000   0.000  -0.000  -0.000   0.000
 25.723  35.893  -0.000  -0.000   0.000  -0.000  -0.000   0.000
 -0.000  -0.000   4.181   0.000  -0.000   7.791   0.000  -0.000
 -0.000  -0.000   0.000   4.181   0.000   0.000   7.791   0.000
  0.000   0.000  -0.000   0.000   4.181  -0.000   0.000   7.791
 -0.000  -0.000   7.791   0.000  -0.000  14.528   0.000  -0.000
 -0.000  -0.000   0.000   7.791   0.000   0.000  14.528   0.000
  0.000   0.000  -0.000   0.000   7.791  -0.000   0.000  14.528
 total augmentation occupancy for first ion, spin component:           1
  2.000   0.000   0.000   0.000   0.000   0.000   0.000   0.000
  0.000   0.000   0.000   0.000   0.000   0.000   0.000   0.000
  0.000   0.000   0.667   0.000   0.000   0.000   0.000   0.000
  0.000   0.000   0.000   0.667   0.000   0.000   0.000   0.000
  0.000   0.000   0.000   0.000   0.667   0.000   0.000   0.000
  0.000   0.000   0.000   0.000   0.000   0.000   0.000   0.000
  0.000   0.000   0.000   0.000   0.000   0.000   0.000   0.000
  0.000   0.000   0.000   0.000   0.000   0.000   0.000   0.000


------------------------ aborting loop because EDIFF is reached ----------------------------------------





 total charge

# of ion       s       p       d       tot
------------------------------------------
    1        0.718   0.968   0.000   1.686
    2        0.718   0.968   0.000   1.686
--------------------------------------------------
tot          1.436   1.935   0.000   3.372
 
    CHARGE:  cpu time    0.0739: real time    0.0741
    FORLOC:  cpu time    0.0021: real time    0.0022
    FORNL :  cpu time    1.6005: real time    1.6032
    STRESS:  cpu time    4.7793: real time    4.7848
    FORCOR:  cpu time    0.0384: real time    0.0384
    FORHAR:  cpu time    0.0088: real time    0.0088
    OFIELD:  cpu time    0.0003: real time    0.0003

  FORCE on cell =-STRESS in cart. coord.  units (eV):
  Direction    XX          YY          ZZ          XY          YZ          ZX
  --------------------------------------------------------------------------------------
  Alpha Z     3.29318     3.29318     3.29318
  Ewald     -75.64832   -75.64835   -75.64832    -0.00001     0.00001     0.00001
  Hartree     5.11904     5.21184     5.80308     0.24789     0.21042     0.44608
  E(xc)     -25.34363   -25.33797   -25.11093     0.08179    -0.04446     0.18441
  Local     -31.21846   -31.12515   -27.84938     1.14664    -1.33360     2.67455
  n-local    77.72977    77.62227    74.85954    -1.06348     0.75970    -2.36643
  augment   -11.51384   -11.47134   -11.03301     0.16031    -0.05570     0.35260
  Kinetic    59.81211    58.92030    55.18906    -0.49193    -0.78508    -2.52650
  Fock        0.00000     0.00000     0.00000     0.00000     0.00000     0.00000
  -------------------------------------------------------------------------------------
  Total       2.22985     1.46478    -0.49678     0.08120    -1.24873    -1.23529
  in kB      87.37481    57.39643   -19.46607     3.18176   -48.93044   -48.40402
  external pressure =       41.77 kB  Pullay stress =        0.00 kB


 VOLUME and BASIS-vectors are now :
 -----------------------------------------------------------------------------
  energy-cutoff  :      680.00
  volume of cell :       40.89
      direct lattice vectors                 reciprocal lattice vectors
     3.348898000  0.000000000  1.933487000     0.298605691 -0.105573000  0.000000000
     1.116299000  3.157372000  1.933487000     0.000000000  0.316719094  0.000000000
     0.000000000  0.000000000  3.866975000    -0.149302807 -0.105573020  0.258600069

  length of vectors
     3.866974243  3.866974707  3.866975000     0.316719145  0.316719094  0.316719096


 FORCES acting on ions
    electron-ion (+dipol)            ewald-force                    non-local-force                 convergence-correction
 -----------------------------------------------------------------------------------------------
   -.110E+01 -.452E+00 -.166E+01   -.634E-05 0.116E-04 0.142E-04   0.136E+01 0.579E+00 0.156E+01   0.144E-01 0.689E-03 0.118E+00
   0.110E+01 0.452E+00 0.166E+01   0.634E-05 -.116E-04 -.142E-04   -.136E+01 -.579E+00 -.156E+01   -.144E-01 -.688E-03 -.118E+00
 -----------------------------------------------------------------------------------------------
   0.297E-04 -.455E-05 -.530E-06   0.718E-18 -.107E-15 0.148E-15   -.255E-04 -.138E-08 -.168E-05   -.146E-05 0.618E-06 -.257E-07
 
 
 POSITION                                       TOTAL-FORCE (eV/Angst)
 -----------------------------------------------------------------------------------
      1.11630      0.78934      1.93349         0.272400      0.127721      0.012629
      0.00000      0.00000      0.00000        -0.272400     -0.127721     -0.012629
 -----------------------------------------------------------------------------------
    total drift:                                0.000003     -0.000004     -0.000002


--------------------------------------------------------------------------------------------------------



  FREE ENERGIE OF THE ION-ELECTRON SYSTEM (eV)
  ---------------------------------------------------
  free  energy   TOTEN  =        -9.72305419 eV

  energy  without entropy=       -9.72305419  energy(sigma->0) =       -9.72305419
 


--------------------------------------------------------------------------------------------------------


    POTLOK:  cpu time    0.0777: real time    0.0778


--------------------------------------------------------------------------------------------------------


     LOOP+:  cpu time   46.7681: real time   46.8849
    4ORBIT:  cpu time    0.0000: real time    0.0000



 total charge

# of ion       s       p       d       tot
------------------------------------------
    1        0.718   0.968   0.000   1.686
    2        0.718   0.968   0.000   1.686
--------------------------------------------------
tot          1.436   1.935   0.000   3.372
 

 total amount of memory used by VASP MPI-rank0    58782. kBytes
=======================================================================

   base      :      30000. kBytes
   nonlr-proj:       1161. kBytes
   fftplans  :       3408. kBytes
   grid      :       6448. kBytes
   one-center:          6. kBytes
   wavefun   :      17759. kBytes
 
  
  
 General timing and accounting informations for this job:
 ========================================================
  
                  Total CPU time used (sec):       51.895
                            User time (sec):       50.464
                          System time (sec):        1.431
                         Elapsed time (sec):       52.017
  
                   Maximum memory used (kb):    69517312.
                   Average memory used (kb):          N/A
  
                          Minor page faults:        21123
                          Major page faults:           59
                 Voluntary context switches:            7
