<?xml version="1.0" encoding="ISO-8859-1"?>
<modeling>
 <generator>
  <i name="program" type="string">vasp </i>
  <i name="version" type="string">6.2.1  </i>
  <i name="subversion" type="string">16May21 (build Oct 27 2021 18:14:32) complex                          parallel </i>
  <i name="platform" type="string">LinuxIFC </i>
  <i name="date" type="string">2021 10 28 </i>
  <i name="time" type="string">14:47:02 </i>
 </generator>
 <incar>
  <i type="string" name="PREC">Accurate</i>
  <i type="string" name="ALGO">Normal</i>
  <i type="int" name="ISPIN">     1</i>
  <i type="int" name="ICHARG">    11</i>
  <i type="int" name="NELM">   200</i>
  <i type="int" name="IBRION">    -1</i>
  <i name="EDIFF">      0.00001000</i>
  <i name="EDIFFG">     -0.02000000</i>
  <i type="int" name="NSW">     0</i>
  <i type="int" name="ISIF">     3</i>
  <i type="int" name="ISYM">     0</i>
  <i name="ENCUT">    680.00000000</i>
  <i name="ENAUG">   1360.00000000</i>
  <i type="int" name="NBANDS">    15</i>
  <i type="string" name="LREAL">Auto</i>
  <i type="int" name="ISMEAR">     0</i>
  <i name="SIGMA">      0.01000000</i>
  <i type="logical" name="LWAVE"> F  </i>
  <i type="logical" name="LCHARG"> F  </i>
  <i type="logical" name="LVTOT"> T  </i>
  <i type="int" name="LORBIT">    11</i>
  <i type="logical" name="LELF"> T  </i>
  <i type="logical" name="LASPH"> T  </i>
  <i type="logical" name="LAECHG"> T  </i>
  <i type="logical" name="LMIXTAU"> T  </i>
 </incar>
 <primitive_cell>
  <structure name="primitive_cell" >
   <crystal>
    <varray name="basis" >
     <v>       3.34889800       0.00000000       1.93348700 </v>
     <v>       1.11629900       3.15737200       1.93348700 </v>
     <v>       0.00000000       0.00000000       3.86697500 </v>
    </varray>
    <i name="volume">     40.88829843 </i>
    <varray name="rec_basis" >
     <v>       0.29860569      -0.10557300       0.00000000 </v>
     <v>       0.00000000       0.31671909       0.00000000 </v>
     <v>      -0.14930281      -0.10557302       0.25860007 </v>
    </varray>
   </crystal>
   <varray name="positions" >
    <v>       0.25000000       0.25000000       0.25000000 </v>
    <v>       0.00000000       0.00000000       0.00000000 </v>
   </varray>
  </structure>
  <varray name="primitive_index" >
   <v type="int" >        1 </v>
   <v type="int" >        2 </v>
  </varray>
 </primitive_cell>
 <kpoints>
  <varray name="kpointlist" >
   <v>       0.00000000       0.00000000       0.00000000 </v>
   <v>       0.02173913       0.00000000       0.02173913 </v>
   <v>       0.04347826       0.00000000       0.04347826 </v>
   <v>       0.06521739       0.00000000       0.06521739 </v>
   <v>       0.08695652       0.00000000       0.08695652 </v>
   <v>       0.10869565       0.00000000       0.10869565 </v>
   <v>       0.13043478       0.00000000       0.13043478 </v>
   <v>       0.15217391       0.00000000       0.15217391 </v>
   <v>       0.17391304       0.00000000       0.17391304 </v>
   <v>       0.19565217       0.00000000       0.19565217 </v>
   <v>       0.21739130       0.00000000       0.21739130 </v>
   <v>       0.23913043       0.00000000       0.23913043 </v>
   <v>       0.26086957       0.00000000       0.26086957 </v>
   <v>       0.28260870       0.00000000       0.28260870 </v>
   <v>       0.30434783       0.00000000       0.30434783 </v>
   <v>       0.32608696       0.00000000       0.32608696 </v>
   <v>       0.34782609       0.00000000       0.34782609 </v>
   <v>       0.36956522       0.00000000       0.36956522 </v>
   <v>       0.39130435       0.00000000       0.39130435 </v>
   <v>       0.41304348       0.00000000       0.41304348 </v>
   <v>       0.43478261       0.00000000       0.43478261 </v>
   <v>       0.45652174       0.00000000       0.45652174 </v>
   <v>       0.47826087       0.00000000       0.47826087 </v>
   <v>       0.50000000       0.00000000       0.50000000 </v>
   <v>       0.50000000       0.00000000       0.50000000 </v>
   <v>       0.50000000       0.02083333       0.52083333 </v>
   <v>       0.50000000       0.04166667       0.54166667 </v>
   <v>       0.50000000       0.06250000       0.56250000 </v>
   <v>       0.50000000       0.08333333       0.58333333 </v>
   <v>       0.50000000       0.10416667       0.60416667 </v>
   <v>       0.50000000       0.12500000       0.62500000 </v>
   <v>       0.50000000       0.14583333       0.64583333 </v>
   <v>       0.50000000       0.16666667       0.66666667 </v>
   <v>       0.50000000       0.18750000       0.68750000 </v>
   <v>       0.50000000       0.20833333       0.70833333 </v>
   <v>       0.50000000       0.22916667       0.72916667 </v>
   <v>       0.50000000       0.25000000       0.75000000 </v>
   <v>       0.50000000       0.25000000       0.75000000 </v>
   <v>       0.48611111       0.26388889       0.75000000 </v>
   <v>       0.47222222       0.27777778       0.75000000 </v>
   <v>       0.45833333       0.29166667       0.75000000 </v>
   <v>       0.44444444       0.30555556       0.75000000 </v>
   <v>       0.43055556       0.31944444       0.75000000 </v>
   <v>       0.41666667       0.33333333       0.75000000 </v>
   <v>       0.40277778       0.34722222       0.75000000 </v>
   <v>       0.38888889       0.36111111       0.75000000 </v>
   <v>       0.37500000       0.37500000       0.75000000 </v>
   <v>       0.37500000       0.37500000       0.75000000 </v>
   <v>       0.36000000       0.36000000       0.72000000 </v>
   <v>       0.34500000       0.34500000       0.69000000 </v>
   <v>       0.33000000       0.33000000       0.66000000 </v>
   <v>       0.31500000       0.31500000       0.63000000 </v>
   <v>       0.30000000       0.30000000       0.60000000 </v>
   <v>       0.28500000       0.28500000       0.57000000 </v>
   <v>       0.27000000       0.27000000       0.54000000 </v>
   <v>       0.25500000       0.25500000       0.51000000 </v>
   <v>       0.24000000       0.24000000       0.48000000 </v>
   <v>       0.22500000       0.22500000       0.45000000 </v>
   <v>       0.21000000       0.21000000       0.42000000 </v>
   <v>       0.19500000       0.19500000       0.39000000 </v>
   <v>       0.18000000       0.18000000       0.36000000 </v>
   <v>       0.16500000       0.16500000       0.33000000 </v>
   <v>       0.15000000       0.15000000       0.30000000 </v>
   <v>       0.13500000       0.13500000       0.27000000 </v>
   <v>       0.12000000       0.12000000       0.24000000 </v>
   <v>       0.10500000       0.10500000       0.21000000 </v>
   <v>       0.09000000       0.09000000       0.18000000 </v>
   <v>       0.07500000       0.07500000       0.15000000 </v>
   <v>       0.06000000       0.06000000       0.12000000 </v>
   <v>       0.04500000       0.04500000       0.09000000 </v>
   <v>       0.03000000       0.03000000       0.06000000 </v>
   <v>       0.01500000       0.01500000       0.03000000 </v>
   <v>       0.00000000       0.00000000       0.00000000 </v>
   <v>       0.00000000       0.00000000       0.00000000 </v>
   <v>       0.02500000       0.02500000       0.02500000 </v>
   <v>       0.05000000       0.05000000       0.05000000 </v>
   <v>       0.07500000       0.07500000       0.07500000 </v>
   <v>       0.10000000       0.10000000       0.10000000 </v>
   <v>       0.12500000       0.12500000       0.12500000 </v>
   <v>       0.15000000       0.15000000       0.15000000 </v>
   <v>       0.17500000       0.17500000       0.17500000 </v>
   <v>       0.20000000       0.20000000       0.20000000 </v>
   <v>       0.22500000       0.22500000       0.22500000 </v>
   <v>       0.25000000       0.25000000       0.25000000 </v>
   <v>       0.27500000       0.27500000       0.27500000 </v>
   <v>       0.30000000       0.30000000       0.30000000 </v>
   <v>       0.32500000       0.32500000       0.32500000 </v>
   <v>       0.35000000       0.35000000       0.35000000 </v>
   <v>       0.37500000       0.37500000       0.37500000 </v>
   <v>       0.40000000       0.40000000       0.40000000 </v>
   <v>       0.42500000       0.42500000       0.42500000 </v>
   <v>       0.45000000       0.45000000       0.45000000 </v>
   <v>       0.47500000       0.47500000       0.47500000 </v>
   <v>       0.50000000       0.50000000       0.50000000 </v>
   <v>       0.50000000       0.50000000       0.50000000 </v>
   <v>       0.50833333       0.48333333       0.50833333 </v>
   <v>       0.51666667       0.46666667       0.51666667 </v>
   <v>       0.52500000       0.45000000       0.52500000 </v>
   <v>       0.53333333       0.43333333       0.53333333 </v>
   <v>       0.54166667       0.41666667       0.54166667 </v>
   <v>       0.55000000       0.40000000       0.55000000 </v>
   <v>       0.55833333       0.38333333       0.55833333 </v>
   <v>       0.56666667       0.36666667       0.56666667 </v>
   <v>       0.57500000       0.35000000       0.57500000 </v>
   <v>       0.58333333       0.33333333       0.58333333 </v>
   <v>       0.59166667       0.31666667       0.59166667 </v>
   <v>       0.60000000       0.30000000       0.60000000 </v>
   <v>       0.60833333       0.28333333       0.60833333 </v>
   <v>       0.61666667       0.26666667       0.61666667 </v>
   <v>       0.62500000       0.25000000       0.62500000 </v>
   <v>       0.62500000       0.25000000       0.62500000 </v>
   <v>       0.61111111       0.25000000       0.63888889 </v>
   <v>       0.59722222       0.25000000       0.65277778 </v>
   <v>       0.58333333       0.25000000       0.66666667 </v>
   <v>       0.56944444       0.25000000       0.68055556 </v>
   <v>       0.55555556       0.25000000       0.69444444 </v>
   <v>       0.54166667       0.25000000       0.70833333 </v>
   <v>       0.52777778       0.25000000       0.72222222 </v>
   <v>       0.51388889       0.25000000       0.73611111 </v>
   <v>       0.50000000       0.25000000       0.75000000 </v>
   <v>       0.50000000       0.25000000       0.75000000 </v>
   <v>       0.50000000       0.26470588       0.73529412 </v>
   <v>       0.50000000       0.27941176       0.72058824 </v>
   <v>       0.50000000       0.29411765       0.70588235 </v>
   <v>       0.50000000       0.30882353       0.69117647 </v>
   <v>       0.50000000       0.32352941       0.67647059 </v>
   <v>       0.50000000       0.33823529       0.66176471 </v>
   <v>       0.50000000       0.35294118       0.64705882 </v>
   <v>       0.50000000       0.36764706       0.63235294 </v>
   <v>       0.50000000       0.38235294       0.61764706 </v>
   <v>       0.50000000       0.39705882       0.60294118 </v>
   <v>       0.50000000       0.41176471       0.58823529 </v>
   <v>       0.50000000       0.42647059       0.57352941 </v>
   <v>       0.50000000       0.44117647       0.55882353 </v>
   <v>       0.50000000       0.45588235       0.54411765 </v>
   <v>       0.50000000       0.47058824       0.52941176 </v>
   <v>       0.50000000       0.48529412       0.51470588 </v>
   <v>       0.50000000       0.50000000       0.50000000 </v>
   <v>       0.50000000       0.50000000       0.50000000 </v>
   <v>       0.49166667       0.49166667       0.51666667 </v>
   <v>       0.48333333       0.48333333       0.53333333 </v>
   <v>       0.47500000       0.47500000       0.55000000 </v>
   <v>       0.46666667       0.46666667       0.56666667 </v>
   <v>       0.45833333       0.45833333       0.58333333 </v>
   <v>       0.45000000       0.45000000       0.60000000 </v>
   <v>       0.44166667       0.44166667       0.61666667 </v>
   <v>       0.43333333       0.43333333       0.63333333 </v>
   <v>       0.42500000       0.42500000       0.65000000 </v>
   <v>       0.41666667       0.41666667       0.66666667 </v>
   <v>       0.40833333       0.40833333       0.68333333 </v>
   <v>       0.40000000       0.40000000       0.70000000 </v>
   <v>       0.39166667       0.39166667       0.71666667 </v>
   <v>       0.38333333       0.38333333       0.73333333 </v>
   <v>       0.37500000       0.37500000       0.75000000 </v>
   <v>       0.62500000       0.25000000       0.62500000 </v>
   <v>       0.61111111       0.22222222       0.61111111 </v>
   <v>       0.59722222       0.19444444       0.59722222 </v>
   <v>       0.58333333       0.16666667       0.58333333 </v>
   <v>       0.56944444       0.13888889       0.56944444 </v>
   <v>       0.55555556       0.11111111       0.55555556 </v>
   <v>       0.54166667       0.08333333       0.54166667 </v>
   <v>       0.52777778       0.05555556       0.52777778 </v>
   <v>       0.51388889       0.02777778       0.51388889 </v>
   <v>       0.50000000       0.00000000       0.50000000 </v>
  </varray>
  <varray name="weights" >
   <v>       0.00609756 </v>
   <v>       0.00609756 </v>
   <v>       0.00609756 </v>
   <v>       0.00609756 </v>
   <v>       0.00609756 </v>
   <v>       0.00609756 </v>
   <v>       0.00609756 </v>
   <v>       0.00609756 </v>
   <v>       0.00609756 </v>
   <v>       0.00609756 </v>
   <v>       0.00609756 </v>
   <v>       0.00609756 </v>
   <v>       0.00609756 </v>
   <v>       0.00609756 </v>
   <v>       0.00609756 </v>
   <v>       0.00609756 </v>
   <v>       0.00609756 </v>
   <v>       0.00609756 </v>
   <v>       0.00609756 </v>
   <v>       0.00609756 </v>
   <v>       0.00609756 </v>
   <v>       0.00609756 </v>
   <v>       0.00609756 </v>
   <v>       0.00609756 </v>
   <v>       0.00609756 </v>
   <v>       0.00609756 </v>
   <v>       0.00609756 </v>
   <v>       0.00609756 </v>
   <v>       0.00609756 </v>
   <v>       0.00609756 </v>
   <v>       0.00609756 </v>
   <v>       0.00609756 </v>
   <v>       0.00609756 </v>
   <v>       0.00609756 </v>
   <v>       0.00609756 </v>
   <v>       0.00609756 </v>
   <v>       0.00609756 </v>
   <v>       0.00609756 </v>
   <v>       0.00609756 </v>
   <v>       0.00609756 </v>
   <v>       0.00609756 </v>
   <v>       0.00609756 </v>
   <v>       0.00609756 </v>
   <v>       0.00609756 </v>
   <v>       0.00609756 </v>
   <v>       0.00609756 </v>
   <v>       0.00609756 </v>
   <v>       0.00609756 </v>
   <v>       0.00609756 </v>
   <v>       0.00609756 </v>
   <v>       0.00609756 </v>
   <v>       0.00609756 </v>
   <v>       0.00609756 </v>
   <v>       0.00609756 </v>
   <v>       0.00609756 </v>
   <v>       0.00609756 </v>
   <v>       0.00609756 </v>
   <v>       0.00609756 </v>
   <v>       0.00609756 </v>
   <v>       0.00609756 </v>
   <v>       0.00609756 </v>
   <v>       0.00609756 </v>
   <v>       0.00609756 </v>
   <v>       0.00609756 </v>
   <v>       0.00609756 </v>
   <v>       0.00609756 </v>
   <v>       0.00609756 </v>
   <v>       0.00609756 </v>
   <v>       0.00609756 </v>
   <v>       0.00609756 </v>
   <v>       0.00609756 </v>
   <v>       0.00609756 </v>
   <v>       0.00609756 </v>
   <v>       0.00609756 </v>
   <v>       0.00609756 </v>
   <v>       0.00609756 </v>
   <v>       0.00609756 </v>
   <v>       0.00609756 </v>
   <v>       0.00609756 </v>
   <v>       0.00609756 </v>
   <v>       0.00609756 </v>
   <v>       0.00609756 </v>
   <v>       0.00609756 </v>
   <v>       0.00609756 </v>
   <v>       0.00609756 </v>
   <v>       0.00609756 </v>
   <v>       0.00609756 </v>
   <v>       0.00609756 </v>
   <v>       0.00609756 </v>
   <v>       0.00609756 </v>
   <v>       0.00609756 </v>
   <v>       0.00609756 </v>
   <v>       0.00609756 </v>
   <v>       0.00609756 </v>
   <v>       0.00609756 </v>
   <v>       0.00609756 </v>
   <v>       0.00609756 </v>
   <v>       0.00609756 </v>
   <v>       0.00609756 </v>
   <v>       0.00609756 </v>
   <v>       0.00609756 </v>
   <v>       0.00609756 </v>
   <v>       0.00609756 </v>
   <v>       0.00609756 </v>
   <v>       0.00609756 </v>
   <v>       0.00609756 </v>
   <v>       0.00609756 </v>
   <v>       0.00609756 </v>
   <v>       0.00609756 </v>
   <v>       0.00609756 </v>
   <v>       0.00609756 </v>
   <v>       0.00609756 </v>
   <v>       0.00609756 </v>
   <v>       0.00609756 </v>
   <v>       0.00609756 </v>
   <v>       0.00609756 </v>
   <v>       0.00609756 </v>
   <v>       0.00609756 </v>
   <v>       0.00609756 </v>
   <v>       0.00609756 </v>
   <v>       0.00609756 </v>
   <v>       0.00609756 </v>
   <v>       0.00609756 </v>
   <v>       0.00609756 </v>
   <v>       0.00609756 </v>
   <v>       0.00609756 </v>
   <v>       0.00609756 </v>
   <v>       0.00609756 </v>
   <v>       0.00609756 </v>
   <v>       0.00609756 </v>
   <v>       0.00609756 </v>
   <v>       0.00609756 </v>
   <v>       0.00609756 </v>
   <v>       0.00609756 </v>
   <v>       0.00609756 </v>
   <v>       0.00609756 </v>
   <v>       0.00609756 </v>
   <v>       0.00609756 </v>
   <v>       0.00609756 </v>
   <v>       0.00609756 </v>
   <v>       0.00609756 </v>
   <v>       0.00609756 </v>
   <v>       0.00609756 </v>
   <v>       0.00609756 </v>
   <v>       0.00609756 </v>
   <v>       0.00609756 </v>
   <v>       0.00609756 </v>
   <v>       0.00609756 </v>
   <v>       0.00609756 </v>
   <v>       0.00609756 </v>
   <v>       0.00609756 </v>
   <v>       0.00609756 </v>
   <v>       0.00609756 </v>
   <v>       0.00609756 </v>
   <v>       0.00609756 </v>
   <v>       0.00609756 </v>
   <v>       0.00609756 </v>
   <v>       0.00609756 </v>
   <v>       0.00609756 </v>
   <v>       0.00609756 </v>
   <v>       0.00609756 </v>
   <v>       0.00609756 </v>
   <v>       0.00609756 </v>
   <v>       0.00609756 </v>
  </varray>
 </kpoints>
 <parameters>
  <separator name="general" >
   <i type="string" name="SYSTEM">unknown system</i>
   <i type="logical" name="LCOMPAT"> F  </i>
  </separator>
  <separator name="electronic" >
   <i type="string" name="PREC">accura</i>
   <i name="ENMAX">    680.00000000</i>
   <i name="ENAUG">   1360.00000000</i>
   <i name="EDIFF">      0.00001000</i>
   <i type="int" name="IALGO">    38</i>
   <i type="int" name="IWAVPR">    10</i>
   <i type="int" name="NBANDS">    16</i>
   <i type="int" name="NBANDSLOW">    -1</i>
   <i type="int" name="NBANDSHIGH">    -1</i>
   <i name="NELECT">      8.00000000</i>
   <i type="int" name="TURBO">     0</i>
   <i type="int" name="IRESTART">     0</i>
   <i type="int" name="NREBOOT">     0</i>
   <i type="int" name="NMIN">     0</i>
   <i name="EREF">      0.00000000</i>
   <separator name="electronic smearing" >
    <i type="int" name="ISMEAR">     0</i>
    <i name="SIGMA">      0.01000000</i>
    <i name="KSPACING">      0.50000000</i>
    <i type="logical" name="KGAMMA"> T  </i>
    <i type="logical" name="KBLOWUP"> T  </i>
   </separator>
   <separator name="electronic projectors" >
    <i type="logical" name="LREAL"> T  </i>
    <v name="ROPT">     -0.00025000</v>
    <i type="int" name="LMAXPAW">  -100</i>
    <i type="int" name="LMAXMIX">     2</i>
    <i type="logical" name="NLSPLINE"> F  </i>
   </separator>
   <separator name="electronic startup" >
    <i type="int" name="ISTART">     0</i>
    <i type="int" name="ICHARG">    11</i>
    <i type="int" name="INIWAV">     1</i>
   </separator>
   <separator name="electronic spin" >
    <i type="int" name="ISPIN">     1</i>
    <i type="logical" name="LNONCOLLINEAR"> F  </i>
    <v name="MAGMOM">      1.00000000      1.00000000</v>
    <i name="NUPDOWN">     -1.00000000</i>
    <i type="logical" name="LSORBIT"> F  </i>
    <v name="SAXIS">      0.00000000      0.00000000      1.00000000</v>
    <i type="logical" name="LSPIRAL"> F  </i>
    <v name="QSPIRAL">      0.00000000      0.00000000      0.00000000</v>
    <i type="logical" name="LZEROZ"> F  </i>
   </separator>
   <separator name="electronic exchange-correlation" >
    <i type="logical" name="LASPH"> T  </i>
    <i type="logical" name="LMETAGGA"> F  </i>
   </separator>
   <separator name="electronic convergence" >
    <i type="int" name="NELM">   200</i>
    <i type="int" name="NELMDL">    -5</i>
    <i type="int" name="NELMIN">     2</i>
    <i name="ENINI">    680.00000000</i>
    <separator name="electronic convergence detail" >
     <i type="logical" name="LDIAG"> T  </i>
     <i type="logical" name="LSUBROT"> F  </i>
     <i name="WEIMIN">      0.00000000</i>
     <i name="EBREAK">      0.00000016</i>
     <i name="DEPER">      0.30000000</i>
     <i type="int" name="NRMM">     4</i>
     <i name="TIME">      0.40000000</i>
    </separator>
   </separator>
   <separator name="electronic mixer" >
    <i name="AMIX">      0.40000000</i>
    <i name="BMIX">      1.00000000</i>
    <i name="AMIN">      0.10000000</i>
    <i name="AMIX_MAG">      1.60000000</i>
    <i name="BMIX_MAG">      1.00000000</i>
    <separator name="electronic mixer details" >
     <i type="int" name="IMIX">     4</i>
     <i type="logical" name="MIXFIRST"> F  </i>
     <i type="int" name="MAXMIX">   -45</i>
     <i name="WC">    100.00000000</i>
     <i type="int" name="INIMIX">     1</i>
     <i type="int" name="MIXPRE">     1</i>
     <i type="int" name="MREMOVE">     5</i>
    </separator>
   </separator>
   <separator name="electronic dipolcorrection" >
    <i type="logical" name="LDIPOL"> F  </i>
    <i type="logical" name="LMONO"> F  </i>
    <i type="int" name="IDIPOL">     0</i>
    <i name="EPSILON">      1.00000000</i>
    <v name="DIPOL">   -100.00000000   -100.00000000   -100.00000000</v>
    <i name="EFIELD">      0.00000000</i>
   </separator>
  </separator>
  <separator name="grids" >
   <i type="int" name="NGX">    36</i>
   <i type="int" name="NGY">    36</i>
   <i type="int" name="NGZ">    36</i>
   <i type="int" name="NGXF">    72</i>
   <i type="int" name="NGYF">    72</i>
   <i type="int" name="NGZF">    72</i>
   <i type="logical" name="ADDGRID"> F  </i>
  </separator>
  <separator name="ionic" >
   <i type="int" name="NSW">     0</i>
   <i type="int" name="IBRION">    -1</i>
   <i type="int" name="MDALGO">     0</i>
   <i type="int" name="ISIF">     3</i>
   <i name="PSTRESS">      0.00000000</i>
   <i name="EDIFFG">     -0.02000000</i>
   <i type="int" name="NFREE">     0</i>
   <i name="POTIM">      0.50000000</i>
   <i name="SMASS">     -3.00000000</i>
   <i name="SCALEE">      1.00000000</i>
  </separator>
  <separator name="ionic md" >
   <i name="TEBEG">      0.00010000</i>
   <i name="TEEND">      0.00010000</i>
   <i type="int" name="NBLOCK">     1</i>
   <i type="int" name="KBLOCK">     1</i>
   <i type="int" name="NPACO">   256</i>
   <i name="APACO">     16.00000000</i>
  </separator>
  <separator name="symmetry" >
   <i type="int" name="ISYM">     0</i>
   <i name="SYMPREC">      0.00001000</i>
  </separator>
  <separator name="dos" >
   <i type="int" name="LORBIT">    11</i>
   <v name="RWIGS">     -1.00000000</v>
   <i type="int" name="NEDOS">   301</i>
   <i name="EMIN">     10.00000000</i>
   <i name="EMAX">    -10.00000000</i>
   <i name="EFERMI">      0.00000000</i>
  </separator>
  <separator name="writing" >
   <i type="int" name="NWRITE">     2</i>
   <i type="logical" name="LWAVE"> F  </i>
   <i type="logical" name="LDOWNSAMPLE"> F  </i>
   <i type="logical" name="LCHARG"> F  </i>
   <i type="logical" name="LPARD"> F  </i>
   <i type="logical" name="LVTOT"> T  </i>
   <i type="logical" name="LVHAR"> F  </i>
   <i type="logical" name="LELF"> T  </i>
   <i type="logical" name="LOPTICS"> F  </i>
   <v name="STM">      0.00000000      0.00000000      0.00000000      0.00000000      0.00000000      0.00000000      0.00000000</v>
  </separator>
  <separator name="performance" >
   <i type="int" name="NPAR">     4</i>
   <i type="int" name="NSIM">     4</i>
   <i type="int" name="NBLK">    -1</i>
   <i type="logical" name="LPLANE"> T  </i>
   <i type="logical" name="LSCALAPACK"> F  </i>
   <i type="logical" name="LSCAAWARE"> F  </i>
   <i type="logical" name="LSCALU"> F  </i>
   <i type="logical" name="LASYNC"> F  </i>
   <i type="logical" name="LORBITALREAL"> F  </i>
  </separator>
  <separator name="miscellaneous" >
   <i type="int" name="IDIOT">     3</i>
   <i type="int" name="PHON_NSTRUCT">    -1</i>
   <i type="logical" name="LMUSIC"> F  </i>
   <v name="POMASS">     28.08500000</v>
   <v name="DARWINR">      0.00000000</v>
   <v name="DARWINV">      1.00000000</v>
   <i type="logical" name="LCORR"> T  </i>
  </separator>
  <i type="logical" name="GGA_COMPAT"> T  </i>
  <i type="logical" name="LBERRY"> F  </i>
  <i type="int" name="ICORELEVEL">     0</i>
  <i type="logical" name="LDAU"> F  </i>
  <i type="int" name="I_CONSTRAINED_M">     0</i>
  <separator name="electronic exchange-correlation" >
   <i type="string" name="GGA">--</i>
   <i type="int" name="VOSKOWN">     0</i>
   <i type="logical" name="LHFCALC"> F  </i>
   <i type="string" name="PRECFOCK"></i>
   <i type="logical" name="LSYMGRAD"> F  </i>
   <i type="logical" name="LHFONE"> F  </i>
   <i type="logical" name="LRHFCALC"> F  </i>
   <i type="logical" name="LTHOMAS"> F  </i>
   <i type="logical" name="LMODELHF"> F  </i>
   <i type="logical" name="LFOCKACE"> F  </i>
   <i name="ENCUT4O">     -1.00000000</i>
   <i type="int" name="EXXOEP">     0</i>
   <i type="int" name="FOURORBIT">     0</i>
   <i name="AEXX">      0.00000000</i>
   <i name="HFALPHA">      0.00000000</i>
   <i name="MCALPHA">      0.00000000</i>
   <i name="ALDAX">      1.00000000</i>
   <i name="AGGAX">      1.00000000</i>
   <i name="ALDAC">      1.00000000</i>
   <i name="AGGAC">      1.00000000</i>
   <i type="int" name="NKREDX">     1</i>
   <i type="int" name="NKREDY">     1</i>
   <i type="int" name="NKREDZ">     1</i>
   <i type="logical" name="SHIFTRED"> F  </i>
   <i type="logical" name="ODDONLY"> F  </i>
   <i type="logical" name="EVENONLY"> F  </i>
   <i type="int" name="LMAXFOCK">     0</i>
   <i type="int" name="NMAXFOCKAE">     0</i>
   <i type="logical" name="LFOCKAEDFT"> F  </i>
   <i name="HFSCREEN">      0.00000000</i>
   <i name="HFSCREENC">      0.00000000</i>
   <i type="int" name="NBANDSGWLOW">     0</i>
  </separator>
  <separator name="vdW DFT" >
   <i type="logical" name="LUSE_VDW"> F  </i>
   <i name="Zab_VDW">     -0.84910000</i>
   <i name="PARAM1">      0.12340000</i>
   <i name="PARAM2">      1.00000000</i>
   <i name="PARAM3">      0.00000000</i>
  </separator>
  <separator name="model GW" >
   <i type="int" name="MODEL_GW">     0</i>
   <i name="MODEL_EPS0">     12.26648953</i>
   <i name="MODEL_ALPHA">      1.00000000</i>
  </separator>
  <separator name="linear response parameters" >
   <i type="logical" name="LEPSILON"> F  </i>
   <i type="logical" name="LRPA"> F  </i>
   <i type="logical" name="LNABLA"> F  </i>
   <i type="logical" name="LVEL"> F  </i>
   <i type="int" name="KINTER">     0</i>
   <i name="CSHIFT">      0.10000000</i>
   <i name="OMEGAMAX">     -1.00000000</i>
   <i name="DEG_THRESHOLD">      0.00200000</i>
   <i name="RTIME">     -0.10000000</i>
   <i name="WPLASMAI">      0.00000000</i>
   <v name="DFIELD">      0.00000000      0.00000000      0.00000000</v>
   <v name="WPLASMA">      0.00000000      0.00000000      0.00000000      0.00000000      0.00000000      0.00000000      0.00000000      0.00000000      0.00000000</v>
  </separator>
  <separator name="orbital magnetization" >
   <i type="logical" name="NUCIND"> F  </i>
   <v name="MAGPOS">      0.00000000      0.00000000      0.00000000</v>
   <i type="logical" name="LNICSALL"> T  </i>
   <i type="logical" name="ORBITALMAG"> F  </i>
   <i type="logical" name="LMAGBLOCH"> F  </i>
   <i type="logical" name="LCHIMAG"> F  </i>
   <i type="logical" name="LGAUGE"> T  </i>
   <i type="int" name="MAGATOM">     0</i>
   <v name="MAGDIPOL">      0.00000000      0.00000000      0.00000000</v>
   <v name="AVECCONST">      0.00000000      0.00000000      0.00000000</v>
  </separator>
  <separator name="response functions" >
   <i type="logical" name="LFINITE_TEMPERATURE"> F  </i>
   <i type="logical" name="LADDER"> F  </i>
   <i type="logical" name="LRPAFORCE"> F  </i>
   <i type="logical" name="LFXC"> F  </i>
   <i type="logical" name="LHARTREE"> T  </i>
   <i type="int" name="IBSE">     0</i>
   <v type="int" name="KPOINT">    -1     0     0     0</v>
   <i type="logical" name="LTCTC"> F  </i>
   <i type="logical" name="LTCTE"> F  </i>
   <i type="logical" name="LTETE"> F  </i>
   <i type="logical" name="LTRIPLET"> F  </i>
   <i type="logical" name="LFXCEPS"> F  </i>
   <i type="logical" name="LFXHEG"> F  </i>
   <i type="int" name="NATURALO">     2</i>
   <i type="logical" name="LHOLEGF"> F  </i>
   <i type="logical" name="L2ORDER"> F  </i>
   <i type="logical" name="LDMP1"> F  </i>
   <i type="logical" name="LMP2LT"> F  </i>
   <i type="logical" name="LSMP2LT"> F  </i>
   <i type="logical" name="LGWLF"> F  </i>
   <i name="ENCUTGW">     -2.00000000</i>
   <i name="ENCUTGWSOFT">     -2.00000000</i>
   <i name="ENCUTLF">     -1.00000000</i>
   <i type="logical" name="LESF_SPLINES"> F  </i>
   <i type="int" name="LMAXMP2">    -1</i>
   <i name="SCISSOR">      0.00000000</i>
   <i type="int" name="NOMEGA">     0</i>
   <i type="int" name="NOMEGAR">     0</i>
   <i type="int" name="NBANDSGW">    -1</i>
   <i type="int" name="NBANDSO">    -1</i>
   <i type="int" name="NBANDSV">    -1</i>
   <i type="int" name="NELM">   200</i>
   <i type="int" name="NELMHF">     1</i>
   <i type="int" name="DIM">     3</i>
   <i type="int" name="IESPILON">     4</i>
   <i type="int" name="ANTIRES">     0</i>
   <i name="OMEGAMAX">    -30.00000000</i>
   <i name="OMEGAMIN">    -30.00000000</i>
   <i name="OMEGATL">   -200.00000000</i>
   <i type="int" name="OMEGAGRID">     0</i>
   <i name="CSHIFT">     -0.10000000</i>
   <i type="logical" name="LSELFENERGY"> F  </i>
   <i type="logical" name="LSPECTRAL"> F  </i>
   <i type="logical" name="LSPECTRALGW"> F  </i>
   <i type="logical" name="LSINGLES"> F  </i>
   <i type="logical" name="LFERMIGW"> F  </i>
   <i type="logical" name="ODDONLYGW"> F  </i>
   <i type="logical" name="EVENONLYGW"> F  </i>
   <i type="int" name="NKREDLFX">     1</i>
   <i type="int" name="NKREDLFY">     1</i>
   <i type="int" name="NKREDLFZ">     1</i>
   <i type="int" name="MAXMEM">  2800</i>
   <i type="int" name="TELESCOPE">     0</i>
   <i type="int" name="NTAUPAR">    -1</i>
   <i type="int" name="NOMEGAPAR">    -1</i>
   <i name="DAMP_NEWTON">      0.80000001</i>
   <i name="LAMBDA">      1.00000000</i>
  </separator>
  <separator name="External order field" >
   <i name="OFIELD_KAPPA">      0.00000000</i>
   <v name="OFIELD_K">      0.00000000      0.00000000      0.00000000</v>
   <i name="OFIELD_Q6_NEAR">      0.00000000</i>
   <i name="OFIELD_Q6_FAR">      0.00000000</i>
   <i name="OFIELD_A">      0.00000000</i>
  </separator>
 </parameters>
 <atominfo>
  <atoms>       2 </atoms>
  <types>       1 </types>
  <array name="atoms" >
   <dimension dim="1">ion</dimension>
   <field type="string">element</field>
   <field type="int">atomtype</field>
   <set>
    <rc><c>Si</c><c>   1</c></rc>
    <rc><c>Si</c><c>   1</c></rc>
   </set>
  </array>
  <array name="atomtypes" >
   <dimension dim="1">type</dimension>
   <field type="int">atomspertype</field>
   <field type="string">element</field>
   <field>mass</field>
   <field>valence</field>
   <field type="string">pseudopotential</field>
   <set>
    <rc><c>   2</c><c>Si</c><c>     28.08500000</c><c>      4.00000000</c><c>  PAW_PBE Si 05Jan2001                  </c></rc>
   </set>
  </array>
 </atominfo>
 <structure name="initialpos" >
  <crystal>
   <varray name="basis" >
    <v>       3.34889800       0.00000000       1.93348700 </v>
    <v>       1.11629900       3.15737200       1.93348700 </v>
    <v>       0.00000000       0.00000000       3.86697500 </v>
   </varray>
   <i name="volume">     40.88829843 </i>
   <varray name="rec_basis" >
    <v>       0.29860569      -0.10557300       0.00000000 </v>
    <v>       0.00000000       0.31671909       0.00000000 </v>
    <v>      -0.14930281      -0.10557302       0.25860007 </v>
   </varray>
  </crystal>
  <varray name="positions" >
   <v>       0.25000000       0.25000000       0.25000000 </v>
   <v>       0.00000000       0.00000000       0.00000000 </v>
  </varray>
 </structure>
 <calculation>
  <scstep>
   <time name="dav">    6.00    6.01</time>
   <time name="total">    6.09    6.11</time>
   <energy>
    <i name="alphaZ">      3.29317992 </i>
    <i name="ewald">   -226.94489173 </i>
    <i name="hartreedc">    -15.17364114 </i>
    <i name="XCdc">    -18.06134870 </i>
    <i name="pawpsdc">    828.15318592 </i>
    <i name="pawaedc">   -793.17190106 </i>
    <i name="eentropy">     -0.00001373 </i>
    <i name="bandstr">     24.96758355 </i>
    <i name="atom">    206.13322186 </i>
    <i name="e_fr_energy">      9.19537487 </i>
    <i name="e_wo_entrp">      9.19538860 </i>
    <i name="e_0_energy">      9.19538173 </i>
   </energy>
  </scstep>
  <scstep>
   <time name="dav">    6.90    6.91</time>
   <time name="total">    6.90    6.91</time>
   <energy>
    <i name="e_fr_energy">     -9.10214270 </i>
    <i name="e_wo_entrp">     -9.10214270 </i>
    <i name="e_0_energy">     -9.10214270 </i>
   </energy>
  </scstep>
  <scstep>
   <time name="dav">    7.08    7.10</time>
   <time name="total">    7.08    7.10</time>
   <energy>
    <i name="e_fr_energy">     -9.71960097 </i>
    <i name="e_wo_entrp">     -9.71960097 </i>
    <i name="e_0_energy">     -9.71960097 </i>
   </energy>
  </scstep>
  <scstep>
   <time name="dav">    6.56    6.57</time>
   <time name="total">    6.56    6.57</time>
   <energy>
    <i name="e_fr_energy">     -9.72302588 </i>
    <i name="e_wo_entrp">     -9.72302588 </i>
    <i name="e_0_energy">     -9.72302588 </i>
   </energy>
  </scstep>
  <scstep>
   <time name="dav">    7.18    7.21</time>
   <time name="total">    7.18    7.21</time>
   <energy>
    <i name="e_fr_energy">     -9.72305389 </i>
    <i name="e_wo_entrp">     -9.72305389 </i>
    <i name="e_0_energy">     -9.72305389 </i>
   </energy>
  </scstep>
  <scstep>
   <time name="dav">    6.32    6.34</time>
   <time name="total">    6.32    6.34</time>
   <energy>
    <i name="alphaZ">      3.29317992 </i>
    <i name="ewald">   -226.94489173 </i>
    <i name="hartreedc">    -15.17364114 </i>
    <i name="XCdc">    -18.06134870 </i>
    <i name="pawpsdc">    828.15318592 </i>
    <i name="pawaedc">   -793.17190106 </i>
    <i name="eentropy">     -0.00000000 </i>
    <i name="bandstr">      6.04914076 </i>
    <i name="atom">    206.13322186 </i>
    <i name="e_fr_energy">     -9.72305419 </i>
    <i name="e_wo_entrp">     -9.72305419 </i>
    <i name="e_0_energy">     -9.72305419 </i>
   </energy>
  </scstep>
  <structure>
   <crystal>
    <varray name="basis" >
     <v>       3.34889800       0.00000000       1.93348700 </v>
     <v>       1.11629900       3.15737200       1.93348700 </v>
     <v>       0.00000000       0.00000000       3.86697500 </v>
    </varray>
    <i name="volume">     40.88829843 </i>
    <varray name="rec_basis" >
     <v>       0.29860569      -0.10557300       0.00000000 </v>
     <v>       0.00000000       0.31671909       0.00000000 </v>
     <v>      -0.14930281      -0.10557302       0.25860007 </v>
    </varray>
   </crystal>
   <varray name="positions" >
    <v>       0.25000000       0.25000000       0.25000000 </v>
    <v>       0.00000000       0.00000000       0.00000000 </v>
   </varray>
  </structure>
  <varray name="forces" >
   <v>       0.27239991       0.12772076       0.01262873 </v>
   <v>      -0.27239991      -0.12772076      -0.01262873 </v>
  </varray>
  <varray name="stress" >
   <v>      87.37481278       3.18176178     -48.40402001 </v>
   <v>       3.18176239      57.39643262     -48.93043505 </v>
   <v>     -48.40401970     -48.93043652     -19.46606670 </v>
  </varray>
  <energy>
   <i name="e_fr_energy">     -9.72305419 </i>
   <i name="e_wo_entrp">     -9.72305419 </i>
   <i name="e_0_energy">     -9.72305419 </i>
  </energy>
  <time name="totalsc">   46.77   46.88</time>
  <eigenvalues>
   <array>
    <dimension dim="1">band</dimension>
    <dimension dim="2">kpoint</dimension>
    <dimension dim="3">spin</dimension>
    <field>eigene</field>
    <field>occ</field>
    <set>
     <set comment="spin 1">
      <set comment="kpoint 1">
       <r>   -6.1987    1.0000 </r>
       <r>    5.6162    1.0000 </r>
       <r>    5.6162    1.0000 </r>
       <r>    5.6162    1.0000 </r>
       <r>    8.1731    0.0000 </r>
       <r>    8.1731    0.0000 </r>
       <r>    8.1731    0.0000 </r>
       <r>    8.7493    0.0000 </r>
       <r>   13.3253    0.0000 </r>
       <r>   13.3253    0.0000 </r>
       <r>   13.4934    0.0000 </r>
       <r>   16.7985    0.0000 </r>
       <r>   16.7985    0.0000 </r>
       <r>   16.7985    0.0000 </r>
       <r>   20.8898    0.0000 </r>
       <r>   28.4714    0.0000 </r>
      </set>
      <set comment="kpoint 2">
       <r>   -6.1906    1.0000 </r>
       <r>    5.5575    1.0000 </r>
       <r>    5.5816    1.0000 </r>
       <r>    5.5816    1.0000 </r>
       <r>    8.1529    0.0000 </r>
       <r>    8.2177    0.0000 </r>
       <r>    8.2177    0.0000 </r>
       <r>    8.8069    0.0000 </r>
       <r>   13.2586    0.0000 </r>
       <r>   13.3344    0.0000 </r>
       <r>   13.5297    0.0000 </r>
       <r>   16.8127    0.0000 </r>
       <r>   16.8127    0.0000 </r>
       <r>   16.8453    0.0000 </r>
       <r>   20.9492    0.0000 </r>
       <r>   28.3551    0.0000 </r>
      </set>
      <set comment="kpoint 3">
       <r>   -6.1662    1.0000 </r>
       <r>    5.3934    1.0000 </r>
       <r>    5.4846    1.0000 </r>
       <r>    5.4846    1.0000 </r>
       <r>    8.0941    0.0000 </r>
       <r>    8.3448    0.0000 </r>
       <r>    8.3448    0.0000 </r>
       <r>    8.9658    0.0000 </r>
       <r>   13.0750    0.0000 </r>
       <r>   13.3614    0.0000 </r>
       <r>   13.6369    0.0000 </r>
       <r>   16.8553    0.0000 </r>
       <r>   16.8553    0.0000 </r>
       <r>   16.9724    0.0000 </r>
       <r>   21.1256    0.0000 </r>
       <r>   27.9943    0.0000 </r>
      </set>
      <set comment="kpoint 4">
       <r>   -6.1256    1.0000 </r>
       <r>    5.1505    1.0000 </r>
       <r>    5.3410    1.0000 </r>
       <r>    5.3410    1.0000 </r>
       <r>    8.0017    0.0000 </r>
       <r>    8.5383    0.0000 </r>
       <r>    8.5383    0.0000 </r>
       <r>    9.1938    0.0000 </r>
       <r>   12.8138    0.0000 </r>
       <r>   13.4066    0.0000 </r>
       <r>   13.8099    0.0000 </r>
       <r>   16.9262    0.0000 </r>
       <r>   16.9263    0.0000 </r>
       <r>   17.1515    0.0000 </r>
       <r>   21.4131    0.0000 </r>
       <r>   27.5192    0.0000 </r>
      </set>
      <set comment="kpoint 5">
       <r>   -6.0688    1.0000 </r>
       <r>    4.8549    1.0000 </r>
       <r>    5.1675    1.0000 </r>
       <r>    5.1675    1.0000 </r>
       <r>    7.8826    0.0000 </r>
       <r>    8.7815    0.0000 </r>
       <r>    8.7815    0.0000 </r>
       <r>    9.4524    0.0000 </r>
       <r>   12.5218    0.0000 </r>
       <r>   13.4697    0.0000 </r>
       <r>   14.0413    0.0000 </r>
       <r>   17.0253    0.0000 </r>
       <r>   17.0253    0.0000 </r>
       <r>   17.3573    0.0000 </r>
       <r>   21.8014    0.0000 </r>
       <r>   26.9813    0.0000 </r>
      </set>
      <set comment="kpoint 6">
       <r>   -5.9959    1.0000 </r>
       <r>    4.5255    1.0000 </r>
       <r>    4.9774    1.0000 </r>
       <r>    4.9774    1.0000 </r>
       <r>    7.7441    0.0000 </r>
       <r>    9.0608    0.0000 </r>
       <r>    9.0608    0.0000 </r>
       <r>    9.6969    0.0000 </r>
       <r>   12.2509    0.0000 </r>
       <r>   13.5509    0.0000 </r>
       <r>   14.3235    0.0000 </r>
       <r>   17.1520    0.0000 </r>
       <r>   17.1520    0.0000 </r>
       <r>   17.5752    0.0000 </r>
       <r>   22.2768    0.0000 </r>
       <r>   26.4147    0.0000 </r>
      </set>
      <set comment="kpoint 7">
       <r>   -5.9069    1.0000 </r>
       <r>    4.1747    1.0000 </r>
       <r>    4.7801    1.0000 </r>
       <r>    4.7801    1.0000 </r>
       <r>    7.5933    0.0000 </r>
       <r>    9.3665    0.0000 </r>
       <r>    9.3665    0.0000 </r>
       <r>    9.8680    0.0000 </r>
       <r>   12.0666    0.0000 </r>
       <r>   13.6501    0.0000 </r>
       <r>   14.6486    0.0000 </r>
       <r>   17.3059    0.0000 </r>
       <r>   17.3059    0.0000 </r>
       <r>   17.8000    0.0000 </r>
       <r>   22.8233    0.0000 </r>
       <r>   25.8360    0.0000 </r>
      </set>
      <set comment="kpoint 8">
       <r>   -5.8020    1.0000 </r>
       <r>    3.8101    1.0000 </r>
       <r>    4.5819    1.0000 </r>
       <r>    4.5819    1.0000 </r>
       <r>    7.4362    0.0000 </r>
       <r>    9.6920    0.0000 </r>
       <r>    9.6920    0.0000 </r>
       <r>    9.8983    0.0000 </r>
       <r>   12.0406    0.0000 </r>
       <r>   13.7673    0.0000 </r>
       <r>   15.0098    0.0000 </r>
       <r>   17.4859    0.0000 </r>
       <r>   17.4859    0.0000 </r>
       <r>   18.0320    0.0000 </r>
       <r>   23.4243    0.0000 </r>
       <r>   25.2558    0.0000 </r>
      </set>
      <set comment="kpoint 9">
       <r>   -5.6812    1.0000 </r>
       <r>    3.4367    1.0000 </r>
       <r>    4.3871    1.0000 </r>
       <r>    4.3871    1.0000 </r>
       <r>    7.2781    0.0000 </r>
       <r>    9.7681    0.0000 </r>
       <r>   10.0328    0.0000 </r>
       <r>   10.0328    0.0000 </r>
       <r>   12.1958    0.0000 </r>
       <r>   13.9025    0.0000 </r>
       <r>   15.4006    0.0000 </r>
       <r>   17.6902    0.0000 </r>
       <r>   17.6902    0.0000 </r>
       <r>   18.2739    0.0000 </r>
       <r>   24.0635    0.0000 </r>
       <r>   24.6822    0.0000 </r>
      </set>
      <set comment="kpoint 10">
       <r>   -5.5448    1.0000 </r>
       <r>    3.0576    1.0000 </r>
       <r>    4.1986    1.0000 </r>
       <r>    4.1986    1.0000 </r>
       <r>    7.1228    0.0000 </r>
       <r>    9.5257    0.0000 </r>
       <r>   10.3855    0.0000 </r>
       <r>   10.3855    0.0000 </r>
       <r>   12.4858    0.0000 </r>
       <r>   14.0556    0.0000 </r>
       <r>   15.8152    0.0000 </r>
       <r>   17.9161    0.0000 </r>
       <r>   17.9161    0.0000 </r>
       <r>   18.5290    0.0000 </r>
       <r>   24.1218    0.0000 </r>
       <r>   24.1226    0.0000 </r>
      </set>
      <set comment="kpoint 11">
       <r>   -5.3928    1.0000 </r>
       <r>    2.6750    1.0000 </r>
       <r>    4.0186    1.0000 </r>
       <r>    4.0186    1.0000 </r>
       <r>    6.9738    0.0000 </r>
       <r>    9.2282    0.0000 </r>
       <r>   10.7479    0.0000 </r>
       <r>   10.7479    0.0000 </r>
       <r>   12.8550    0.0000 </r>
       <r>   14.2266    0.0000 </r>
       <r>   16.2479    0.0000 </r>
       <r>   18.1586    0.0000 </r>
       <r>   18.1586    0.0000 </r>
       <r>   18.8005    0.0000 </r>
       <r>   23.5823    0.0000 </r>
       <r>   23.5824    0.0000 </r>
      </set>
      <set comment="kpoint 12">
       <r>   -5.2255    1.0000 </r>
       <r>    2.2904    1.0000 </r>
       <r>    3.8486    1.0000 </r>
       <r>    3.8486    1.0000 </r>
       <r>    6.8337    0.0000 </r>
       <r>    8.9113    0.0000 </r>
       <r>   11.1182    0.0000 </r>
       <r>   11.1182    0.0000 </r>
       <r>   13.2680    0.0000 </r>
       <r>   14.4156    0.0000 </r>
       <r>   16.6927    0.0000 </r>
       <r>   18.4095    0.0000 </r>
       <r>   18.4095    0.0000 </r>
       <r>   19.0914    0.0000 </r>
       <r>   23.0738    0.0000 </r>
       <r>   23.0738    0.0000 </r>
      </set>
      <set comment="kpoint 13">
       <r>   -5.0431    1.0000 </r>
       <r>    1.9048    1.0000 </r>
       <r>    3.6896    1.0000 </r>
       <r>    3.6896    1.0000 </r>
       <r>    6.7047    0.0000 </r>
       <r>    8.5941    0.0000 </r>
       <r>   11.4951    0.0000 </r>
       <r>   11.4951    0.0000 </r>
       <r>   13.7057    0.0000 </r>
       <r>   14.6224    0.0000 </r>
       <r>   17.1424    0.0000 </r>
       <r>   18.6540    0.0000 </r>
       <r>   18.6540    0.0000 </r>
       <r>   19.4040    0.0000 </r>
       <r>   22.6124    0.0000 </r>
       <r>   22.6125    0.0000 </r>
      </set>
      <set comment="kpoint 14">
       <r>   -4.8457    1.0000 </r>
       <r>    1.5195    1.0000 </r>
       <r>    3.5426    1.0000 </r>
       <r>    3.5426    1.0000 </r>
       <r>    6.5884    0.0000 </r>
       <r>    8.2869    0.0000 </r>
       <r>   11.8777    0.0000 </r>
       <r>   11.8777    0.0000 </r>
       <r>   14.1572    0.0000 </r>
       <r>   14.8470    0.0000 </r>
       <r>   17.5883    0.0000 </r>
       <r>   18.8653    0.0000 </r>
       <r>   18.8653    0.0000 </r>
       <r>   19.7404    0.0000 </r>
       <r>   22.2253    0.0000 </r>
       <r>   22.2254    0.0000 </r>
      </set>
      <set comment="kpoint 15">
       <r>   -4.6337    1.0000 </r>
       <r>    1.1351    1.0000 </r>
       <r>    3.4082    1.0000 </r>
       <r>    3.4082    1.0000 </r>
       <r>    6.4863    0.0000 </r>
       <r>    7.9956    0.0000 </r>
       <r>   12.2653    0.0000 </r>
       <r>   12.2653    0.0000 </r>
       <r>   14.6154    0.0000 </r>
       <r>   15.0893    0.0000 </r>
       <r>   18.0184    0.0000 </r>
       <r>   19.0000    0.0000 </r>
       <r>   19.0000    0.0000 </r>
       <r>   20.1020    0.0000 </r>
       <r>   21.9564    0.0000 </r>
       <r>   21.9564    0.0000 </r>
      </set>
      <set comment="kpoint 16">
       <r>   -4.4074    1.0000 </r>
       <r>    0.7527    1.0000 </r>
       <r>    3.2868    1.0000 </r>
       <r>    3.2868    1.0000 </r>
       <r>    6.3997    0.0000 </r>
       <r>    7.7236    0.0000 </r>
       <r>   12.6575    0.0000 </r>
       <r>   12.6575    0.0000 </r>
       <r>   15.0755    0.0000 </r>
       <r>   15.3495    0.0000 </r>
       <r>   18.4168    0.0000 </r>
       <r>   19.0053    0.0000 </r>
       <r>   19.0053    0.0000 </r>
       <r>   20.4900    0.0000 </r>
       <r>   21.8499    0.0000 </r>
       <r>   21.8584    0.0000 </r>
      </set>
      <set comment="kpoint 17">
       <r>   -4.1671    1.0000 </r>
       <r>    0.3731    1.0000 </r>
       <r>    3.1790    1.0000 </r>
       <r>    3.1790    1.0000 </r>
       <r>    6.3296    0.0000 </r>
       <r>    7.4732    0.0000 </r>
       <r>   13.0536    0.0000 </r>
       <r>   13.0536    0.0000 </r>
       <r>   15.5336    0.0000 </r>
       <r>   15.6272    0.0000 </r>
       <r>   18.7619    0.0000 </r>
       <r>   18.8570    0.0000 </r>
       <r>   18.8570    0.0000 </r>
       <r>   20.9048    0.0000 </r>
       <r>   21.3113    0.0000 </r>
       <r>   21.9554    0.0000 </r>
      </set>
      <set comment="kpoint 18">
       <r>   -3.9132    1.0000 </r>
       <r>   -0.0028    1.0000 </r>
       <r>    3.0850    1.0000 </r>
       <r>    3.0850    1.0000 </r>
       <r>    6.2769    0.0000 </r>
       <r>    7.2453    0.0000 </r>
       <r>   13.4532    0.0000 </r>
       <r>   13.4532    0.0000 </r>
       <r>   15.9226    0.0000 </r>
       <r>   15.9866    0.0000 </r>
       <r>   18.5830    0.0000 </r>
       <r>   18.5830    0.0000 </r>
       <r>   19.0278    0.0000 </r>
       <r>   20.7993    0.0000 </r>
       <r>   21.3464    0.0000 </r>
       <r>   22.2191    0.0000 </r>
      </set>
      <set comment="kpoint 19">
       <r>   -3.6461    1.0000 </r>
       <r>   -0.3741    1.0000 </r>
       <r>    3.0050    1.0000 </r>
       <r>    3.0050    1.0000 </r>
       <r>    6.2424    0.0000 </r>
       <r>    7.0408    0.0000 </r>
       <r>   13.8554    0.0000 </r>
       <r>   13.8554    0.0000 </r>
       <r>   16.2354    0.0000 </r>
       <r>   16.4317    0.0000 </r>
       <r>   18.2317    0.0000 </r>
       <r>   18.2317    0.0000 </r>
       <r>   19.1889    0.0000 </r>
       <r>   20.3027    0.0000 </r>
       <r>   21.8136    0.0000 </r>
       <r>   22.6010    0.0000 </r>
      </set>
      <set comment="kpoint 20">
       <r>   -3.3662    1.0000 </r>
       <r>   -0.7399    1.0000 </r>
       <r>    2.9394    1.0000 </r>
       <r>    2.9394    1.0000 </r>
       <r>    6.2269    0.0000 </r>
       <r>    6.8597    0.0000 </r>
       <r>   14.2586    0.0000 </r>
       <r>   14.2586    0.0000 </r>
       <r>   16.5657    0.0000 </r>
       <r>   16.8660    0.0000 </r>
       <r>   17.8411    0.0000 </r>
       <r>   17.8411    0.0000 </r>
       <r>   19.2302    0.0000 </r>
       <r>   19.8216    0.0000 </r>
       <r>   22.3039    0.0000 </r>
       <r>   23.0633    0.0000 </r>
      </set>
      <set comment="kpoint 21">
       <r>   -3.0742    1.0000 </r>
       <r>   -1.0993    1.0000 </r>
       <r>    2.8882    1.0000 </r>
       <r>    2.8882    1.0000 </r>
       <r>    6.2310    0.0000 </r>
       <r>    6.7022    0.0000 </r>
       <r>   14.6589    0.0000 </r>
       <r>   14.6589    0.0000 </r>
       <r>   16.9134    0.0000 </r>
       <r>   17.2865    0.0000 </r>
       <r>   17.4365    0.0000 </r>
       <r>   17.4366    0.0000 </r>
       <r>   19.1545    0.0000 </r>
       <r>   19.3565    0.0000 </r>
       <r>   22.8126    0.0000 </r>
       <r>   23.5826    0.0000 </r>
      </set>
      <set comment="kpoint 22">
       <r>   -2.7704    1.0000 </r>
       <r>   -1.4513    1.0000 </r>
       <r>    2.8515    1.0000 </r>
       <r>    2.8515    1.0000 </r>
       <r>    6.2555    0.0000 </r>
       <r>    6.5679    0.0000 </r>
       <r>   15.0463    0.0000 </r>
       <r>   15.0463    0.0000 </r>
       <r>   17.0400    0.0000 </r>
       <r>   17.0400    0.0000 </r>
       <r>   17.2783    0.0000 </r>
       <r>   17.6892    0.0000 </r>
       <r>   18.9076    0.0000 </r>
       <r>   18.9793    0.0000 </r>
       <r>   23.3320    0.0000 </r>
       <r>   24.1456    0.0000 </r>
      </set>
      <set comment="kpoint 23">
       <r>   -2.4555    1.0000 </r>
       <r>   -1.7953    1.0000 </r>
       <r>    2.8295    1.0000 </r>
       <r>    2.8295    1.0000 </r>
       <r>    6.3008    0.0000 </r>
       <r>    6.4565    0.0000 </r>
       <r>   15.3869    0.0000 </r>
       <r>   15.3869    0.0000 </r>
       <r>   16.6920    0.0000 </r>
       <r>   16.6920    0.0000 </r>
       <r>   17.6603    0.0000 </r>
       <r>   18.0691    0.0000 </r>
       <r>   18.4751    0.0000 </r>
       <r>   18.7273    0.0000 </r>
       <r>   23.8399    0.0000 </r>
       <r>   24.6509    0.0000 </r>
      </set>
      <set comment="kpoint 24">
       <r>   -2.1302    1.0000 </r>
       <r>   -2.1302    1.0000 </r>
       <r>    2.8222    1.0000 </r>
       <r>    2.8222    1.0000 </r>
       <r>    6.3677    0.0000 </r>
       <r>    6.3677    0.0000 </r>
       <r>   15.5527    0.0000 </r>
       <r>   15.5527    0.0000 </r>
       <r>   16.5233    0.0000 </r>
       <r>   16.5233    0.0000 </r>
       <r>   18.0593    0.0000 </r>
       <r>   18.0593    0.0000 </r>
       <r>   18.4187    0.0000 </r>
       <r>   18.4187    0.0000 </r>
       <r>   24.2924    0.0000 </r>
       <r>   24.2925    0.0000 </r>
      </set>
      <set comment="kpoint 25">
       <r>   -2.1302    1.0000 </r>
       <r>   -2.1302    1.0000 </r>
       <r>    2.8222    1.0000 </r>
       <r>    2.8222    1.0000 </r>
       <r>    6.3677    0.0000 </r>
       <r>    6.3677    0.0000 </r>
       <r>   15.5527    0.0000 </r>
       <r>   15.5527    0.0000 </r>
       <r>   16.5233    0.0000 </r>
       <r>   16.5233    0.0000 </r>
       <r>   18.0593    0.0000 </r>
       <r>   18.0593    0.0000 </r>
       <r>   18.4187    0.0000 </r>
       <r>   18.4187    0.0000 </r>
       <r>   24.2924    0.0000 </r>
       <r>   24.2925    0.0000 </r>
      </set>
      <set comment="kpoint 26">
       <r>   -2.1278    1.0000 </r>
       <r>   -2.1278    1.0000 </r>
       <r>    2.7999    1.0000 </r>
       <r>    2.7999    1.0000 </r>
       <r>    6.4088    0.0000 </r>
       <r>    6.4088    0.0000 </r>
       <r>   15.4857    0.0000 </r>
       <r>   15.4857    0.0000 </r>
       <r>   16.4260    0.0000 </r>
       <r>   16.4260    0.0000 </r>
       <r>   18.1257    0.0000 </r>
       <r>   18.1257    0.0000 </r>
       <r>   18.5240    0.0000 </r>
       <r>   18.5240    0.0000 </r>
       <r>   24.1789    0.0000 </r>
       <r>   24.1795    0.0000 </r>
      </set>
      <set comment="kpoint 27">
       <r>   -2.1207    1.0000 </r>
       <r>   -2.1207    1.0000 </r>
       <r>    2.7368    1.0000 </r>
       <r>    2.7368    1.0000 </r>
       <r>    6.5288    0.0000 </r>
       <r>    6.5288    0.0000 </r>
       <r>   15.2618    0.0000 </r>
       <r>   15.2618    0.0000 </r>
       <r>   16.2612    0.0000 </r>
       <r>   16.2612    0.0000 </r>
       <r>   18.1957    0.0000 </r>
       <r>   18.1957    0.0000 </r>
       <r>   18.8642    0.0000 </r>
       <r>   18.8642    0.0000 </r>
       <r>   23.9258    0.0000 </r>
       <r>   23.9261    0.0000 </r>
      </set>
      <set comment="kpoint 28">
       <r>   -2.1093    1.0000 </r>
       <r>   -2.1093    1.0000 </r>
       <r>    2.6419    1.0000 </r>
       <r>    2.6419    1.0000 </r>
       <r>    6.7188    0.0000 </r>
       <r>    6.7188    0.0000 </r>
       <r>   14.8833    0.0000 </r>
       <r>   14.8833    0.0000 </r>
       <r>   16.1553    0.0000 </r>
       <r>   16.1553    0.0000 </r>
       <r>   18.2348    0.0000 </r>
       <r>   18.2348    0.0000 </r>
       <r>   19.3442    0.0000 </r>
       <r>   19.3442    0.0000 </r>
       <r>   23.6342    0.0000 </r>
       <r>   23.6343    0.0000 </r>
      </set>
      <set comment="kpoint 29">
       <r>   -2.0942    1.0000 </r>
       <r>   -2.0942    1.0000 </r>
       <r>    2.5266    1.0000 </r>
       <r>    2.5266    1.0000 </r>
       <r>    6.9678    0.0000 </r>
       <r>    6.9678    0.0000 </r>
       <r>   14.4118    0.0000 </r>
       <r>   14.4118    0.0000 </r>
       <r>   16.1044    0.0000 </r>
       <r>   16.1044    0.0000 </r>
       <r>   18.2679    0.0000 </r>
       <r>   18.2679    0.0000 </r>
       <r>   19.8796    0.0000 </r>
       <r>   19.8796    0.0000 </r>
       <r>   23.3453    0.0000 </r>
       <r>   23.3453    0.0000 </r>
      </set>
      <set comment="kpoint 30">
       <r>   -2.0762    1.0000 </r>
       <r>   -2.0762    1.0000 </r>
       <r>    2.4018    1.0000 </r>
       <r>    2.4018    1.0000 </r>
       <r>    7.2652    0.0000 </r>
       <r>    7.2652    0.0000 </r>
       <r>   13.8983    0.0000 </r>
       <r>   13.8983    0.0000 </r>
       <r>   16.0809    0.0000 </r>
       <r>   16.0809    0.0000 </r>
       <r>   18.3019    0.0000 </r>
       <r>   18.3019    0.0000 </r>
       <r>   20.4360    0.0000 </r>
       <r>   20.4360    0.0000 </r>
       <r>   23.0775    0.0000 </r>
       <r>   23.0775    0.0000 </r>
      </set>
      <set comment="kpoint 31">
       <r>   -2.0565    1.0000 </r>
       <r>   -2.0565    1.0000 </r>
       <r>    2.2771    1.0000 </r>
       <r>    2.2771    1.0000 </r>
       <r>    7.6022    0.0000 </r>
       <r>    7.6022    0.0000 </r>
       <r>   13.3684    0.0000 </r>
       <r>   13.3684    0.0000 </r>
       <r>   16.0703    0.0000 </r>
       <r>   16.0703    0.0000 </r>
       <r>   18.3377    0.0000 </r>
       <r>   18.3377    0.0000 </r>
       <r>   20.9936    0.0000 </r>
       <r>   20.9936    0.0000 </r>
       <r>   22.8452    0.0000 </r>
       <r>   22.8452    0.0000 </r>
      </set>
      <set comment="kpoint 32">
       <r>   -2.0363    1.0000 </r>
       <r>   -2.0363    1.0000 </r>
       <r>    2.1599    1.0000 </r>
       <r>    2.1599    1.0000 </r>
       <r>    7.9717    0.0000 </r>
       <r>    7.9717    0.0000 </r>
       <r>   12.8345    0.0000 </r>
       <r>   12.8345    0.0000 </r>
       <r>   16.0662    0.0000 </r>
       <r>   16.0662    0.0000 </r>
       <r>   18.3743    0.0000 </r>
       <r>   18.3743    0.0000 </r>
       <r>   21.5233    0.0000 </r>
       <r>   21.5233    0.0000 </r>
       <r>   22.6749    0.0000 </r>
       <r>   22.6749    0.0000 </r>
      </set>
      <set comment="kpoint 33">
       <r>   -2.0171    1.0000 </r>
       <r>   -2.0171    1.0000 </r>
       <r>    2.0563    1.0000 </r>
       <r>    2.0563    1.0000 </r>
       <r>    8.3677    0.0000 </r>
       <r>    8.3677    0.0000 </r>
       <r>   12.3041    0.0000 </r>
       <r>   12.3041    0.0000 </r>
       <r>   16.0653    0.0000 </r>
       <r>   16.0653    0.0000 </r>
       <r>   18.4094    0.0000 </r>
       <r>   18.4094    0.0000 </r>
       <r>   21.9239    0.0000 </r>
       <r>   21.9239    0.0000 </r>
       <r>   22.6663    0.0000 </r>
       <r>   22.6664    0.0000 </r>
      </set>
      <set comment="kpoint 34">
       <r>   -2.0002    1.0000 </r>
       <r>   -2.0002    1.0000 </r>
       <r>    1.9710    1.0000 </r>
       <r>    1.9710    1.0000 </r>
       <r>    8.7846    0.0000 </r>
       <r>    8.7846    0.0000 </r>
       <r>   11.7831    0.0000 </r>
       <r>   11.7831    0.0000 </r>
       <r>   16.0659    0.0000 </r>
       <r>   16.0659    0.0000 </r>
       <r>   18.4408    0.0000 </r>
       <r>   18.4408    0.0000 </r>
       <r>   22.0237    0.0000 </r>
       <r>   22.0237    0.0000 </r>
       <r>   22.9881    0.0000 </r>
       <r>   22.9882    0.0000 </r>
      </set>
      <set comment="kpoint 35">
       <r>   -1.9870    1.0000 </r>
       <r>   -1.9870    1.0000 </r>
       <r>    1.9075    1.0000 </r>
       <r>    1.9075    1.0000 </r>
       <r>    9.2142    0.0000 </r>
       <r>    9.2142    0.0000 </r>
       <r>   11.2794    0.0000 </r>
       <r>   11.2794    0.0000 </r>
       <r>   16.0669    0.0000 </r>
       <r>   16.0669    0.0000 </r>
       <r>   18.4656    0.0000 </r>
       <r>   18.4656    0.0000 </r>
       <r>   21.9809    0.0000 </r>
       <r>   21.9809    0.0000 </r>
       <r>   23.4711    0.0000 </r>
       <r>   23.4715    0.0000 </r>
      </set>
      <set comment="kpoint 36">
       <r>   -1.9785    1.0000 </r>
       <r>   -1.9785    1.0000 </r>
       <r>    1.8684    1.0000 </r>
       <r>    1.8684    1.0000 </r>
       <r>    9.6334    0.0000 </r>
       <r>    9.6334    0.0000 </r>
       <r>   10.8158    0.0000 </r>
       <r>   10.8158    0.0000 </r>
       <r>   16.0677    0.0000 </r>
       <r>   16.0677    0.0000 </r>
       <r>   18.4817    0.0000 </r>
       <r>   18.4817    0.0000 </r>
       <r>   21.9353    0.0000 </r>
       <r>   21.9353    0.0000 </r>
       <r>   23.9128    0.0000 </r>
       <r>   23.9134    0.0000 </r>
      </set>
      <set comment="kpoint 37">
       <r>   -1.9757    1.0000 </r>
       <r>   -1.9757    1.0000 </r>
       <r>    1.8552    1.0000 </r>
       <r>    1.8552    1.0000 </r>
       <r>    9.8864    0.0000 </r>
       <r>    9.8864    0.0000 </r>
       <r>   10.5480    0.0000 </r>
       <r>   10.5480    0.0000 </r>
       <r>   16.0680    0.0000 </r>
       <r>   16.0680    0.0000 </r>
       <r>   18.4872    0.0000 </r>
       <r>   18.4872    0.0000 </r>
       <r>   21.9181    0.0000 </r>
       <r>   21.9181    0.0000 </r>
       <r>   24.0195    0.0000 </r>
       <r>   24.0226    0.0000 </r>
      </set>
      <set comment="kpoint 38">
       <r>   -1.9757    1.0000 </r>
       <r>   -1.9757    1.0000 </r>
       <r>    1.8552    1.0000 </r>
       <r>    1.8552    1.0000 </r>
       <r>    9.8864    0.0000 </r>
       <r>    9.8864    0.0000 </r>
       <r>   10.5480    0.0000 </r>
       <r>   10.5480    0.0000 </r>
       <r>   16.0680    0.0000 </r>
       <r>   16.0680    0.0000 </r>
       <r>   18.4872    0.0000 </r>
       <r>   18.4872    0.0000 </r>
       <r>   21.9181    0.0000 </r>
       <r>   21.9181    0.0000 </r>
       <r>   24.0194    0.0000 </r>
       <r>   24.0211    0.0000 </r>
      </set>
      <set comment="kpoint 39">
       <r>   -2.0947    1.0000 </r>
       <r>   -1.8610    1.0000 </r>
       <r>    1.7657    1.0000 </r>
       <r>    1.9679    1.0000 </r>
       <r>    9.5659    0.0000 </r>
       <r>    9.9334    0.0000 </r>
       <r>   10.6855    0.0000 </r>
       <r>   10.7112    0.0000 </r>
       <r>   15.8212    0.0000 </r>
       <r>   16.2582    0.0000 </r>
       <r>   18.2771    0.0000 </r>
       <r>   18.7431    0.0000 </r>
       <r>   21.6952    0.0000 </r>
       <r>   22.1149    0.0000 </r>
       <r>   23.7691    0.0000 </r>
       <r>   24.0009    0.0000 </r>
      </set>
      <set comment="kpoint 40">
       <r>   -2.1999    1.0000 </r>
       <r>   -1.7684    1.0000 </r>
       <r>    1.6855    1.0000 </r>
       <r>    2.1160    1.0000 </r>
       <r>    9.0907    0.0000 </r>
       <r>    9.9187    0.0000 </r>
       <r>   10.9564    0.0000 </r>
       <r>   11.0129    0.0000 </r>
       <r>   15.5498    0.0000 </r>
       <r>   16.3214    0.0000 </r>
       <r>   18.1779    0.0000 </r>
       <r>   19.0209    0.0000 </r>
       <r>   21.4908    0.0000 </r>
       <r>   22.2235    0.0000 </r>
       <r>   23.5839    0.0000 </r>
       <r>   23.6170    0.0000 </r>
      </set>
      <set comment="kpoint 41">
       <r>   -2.2913    1.0000 </r>
       <r>   -1.6965    1.0000 </r>
       <r>    1.6150    1.0000 </r>
       <r>    2.2939    1.0000 </r>
       <r>    8.6124    0.0000 </r>
       <r>    9.8815    0.0000 </r>
       <r>   11.2430    0.0000 </r>
       <r>   11.3827    0.0000 </r>
       <r>   15.2601    0.0000 </r>
       <r>   16.2104    0.0000 </r>
       <r>   18.2427    0.0000 </r>
       <r>   19.3130    0.0000 </r>
       <r>   21.3125    0.0000 </r>
       <r>   22.2179    0.0000 </r>
       <r>   23.1865    0.0000 </r>
       <r>   23.4301    0.0000 </r>
      </set>
      <set comment="kpoint 42">
       <r>   -2.3687    1.0000 </r>
       <r>   -1.6427    1.0000 </r>
       <r>    1.5548    1.0000 </r>
       <r>    2.4932    1.0000 </r>
       <r>    8.1590    0.0000 </r>
       <r>    9.8403    0.0000 </r>
       <r>   11.5513    0.0000 </r>
       <r>   11.7724    0.0000 </r>
       <r>   14.9565    0.0000 </r>
       <r>   15.9506    0.0000 </r>
       <r>   18.4516    0.0000 </r>
       <r>   19.6138    0.0000 </r>
       <r>   21.1610    0.0000 </r>
       <r>   22.1226    0.0000 </r>
       <r>   22.7402    0.0000 </r>
       <r>   23.2424    0.0000 </r>
      </set>
      <set comment="kpoint 43">
       <r>   -2.4321    1.0000 </r>
       <r>   -1.6040    1.0000 </r>
       <r>    1.5051    1.0000 </r>
       <r>    2.7018    1.0000 </r>
       <r>    7.7451    0.0000 </r>
       <r>    9.8022    0.0000 </r>
       <r>   11.8719    0.0000 </r>
       <r>   12.1754    0.0000 </r>
       <r>   14.6425    0.0000 </r>
       <r>   15.6019    0.0000 </r>
       <r>   18.7494    0.0000 </r>
       <r>   19.9184    0.0000 </r>
       <r>   21.0329    0.0000 </r>
       <r>   21.9818    0.0000 </r>
       <r>   22.2945    0.0000 </r>
       <r>   23.0240    0.0000 </r>
      </set>
      <set comment="kpoint 44">
       <r>   -2.4815    1.0000 </r>
       <r>   -1.5774    1.0000 </r>
       <r>    1.4661    1.0000 </r>
       <r>    2.9036    1.0000 </r>
       <r>    7.3861    0.0000 </r>
       <r>    9.7707    0.0000 </r>
       <r>   12.1987    0.0000 </r>
       <r>   12.5881    0.0000 </r>
       <r>   14.3219    0.0000 </r>
       <r>   15.2072    0.0000 </r>
       <r>   19.0963    0.0000 </r>
       <r>   20.2213    0.0000 </r>
       <r>   20.9192    0.0000 </r>
       <r>   21.8209    0.0000 </r>
       <r>   21.8657    0.0000 </r>
       <r>   22.8077    0.0000 </r>
      </set>
      <set comment="kpoint 45">
       <r>   -2.5168    1.0000 </r>
       <r>   -1.5604    1.0000 </r>
       <r>    1.4382    1.0000 </r>
       <r>    3.0772    1.0000 </r>
       <r>    7.1015    0.0000 </r>
       <r>    9.7474    0.0000 </r>
       <r>   12.5240    0.0000 </r>
       <r>   13.0063    0.0000 </r>
       <r>   14.0015    0.0000 </r>
       <r>   14.7920    0.0000 </r>
       <r>   19.4691    0.0000 </r>
       <r>   20.5137    0.0000 </r>
       <r>   20.7944    0.0000 </r>
       <r>   21.4855    0.0000 </r>
       <r>   21.6459    0.0000 </r>
       <r>   22.6249    0.0000 </r>
      </set>
      <set comment="kpoint 46">
       <r>   -2.5380    1.0000 </r>
       <r>   -1.5509    1.0000 </r>
       <r>    1.4214    1.0000 </r>
       <r>    3.1973    1.0000 </r>
       <r>    6.9155    0.0000 </r>
       <r>    9.7331    0.0000 </r>
       <r>   12.8273    0.0000 </r>
       <r>   13.4181    0.0000 </r>
       <r>   13.7013    0.0000 </r>
       <r>   14.3787    0.0000 </r>
       <r>   19.8466    0.0000 </r>
       <r>   20.5978    0.0000 </r>
       <r>   20.7742    0.0000 </r>
       <r>   21.2277    0.0000 </r>
       <r>   21.4641    0.0000 </r>
       <r>   22.5031    0.0000 </r>
      </set>
      <set comment="kpoint 47">
       <r>   -2.5451    1.0000 </r>
       <r>   -1.5479    1.0000 </r>
       <r>    1.4158    1.0000 </r>
       <r>    3.2406    1.0000 </r>
       <r>    6.8503    0.0000 </r>
       <r>    9.7283    0.0000 </r>
       <r>   12.9971    0.0000 </r>
       <r>   13.5325    0.0000 </r>
       <r>   13.6991    0.0000 </r>
       <r>   14.0966    0.0000 </r>
       <r>   20.1180    0.0000 </r>
       <r>   20.3821    0.0000 </r>
       <r>   20.9106    0.0000 </r>
       <r>   21.1468    0.0000 </r>
       <r>   21.3552    0.0000 </r>
       <r>   22.4606    0.0000 </r>
      </set>
      <set comment="kpoint 48">
       <r>   -2.5451    1.0000 </r>
       <r>   -1.5479    1.0000 </r>
       <r>    1.4158    1.0000 </r>
       <r>    3.2406    1.0000 </r>
       <r>    6.8503    0.0000 </r>
       <r>    9.7283    0.0000 </r>
       <r>   12.9971    0.0000 </r>
       <r>   13.5325    0.0000 </r>
       <r>   13.6991    0.0000 </r>
       <r>   14.0966    0.0000 </r>
       <r>   20.1180    0.0000 </r>
       <r>   20.3821    0.0000 </r>
       <r>   20.9106    0.0000 </r>
       <r>   21.1468    0.0000 </r>
       <r>   21.3552    0.0000 </r>
       <r>   22.4606    0.0000 </r>
      </set>
      <set comment="kpoint 49">
       <r>   -2.6896    1.0000 </r>
       <r>   -1.4003    1.0000 </r>
       <r>    1.3360    1.0000 </r>
       <r>    3.3429    1.0000 </r>
       <r>    6.9684    0.0000 </r>
       <r>   10.3313    0.0000 </r>
       <r>   12.6377    0.0000 </r>
       <r>   13.1612    0.0000 </r>
       <r>   13.4090    0.0000 </r>
       <r>   13.7848    0.0000 </r>
       <r>   20.2355    0.0000 </r>
       <r>   20.6794    0.0000 </r>
       <r>   20.9124    0.0000 </r>
       <r>   21.0426    0.0000 </r>
       <r>   21.3257    0.0000 </r>
       <r>   22.9437    0.0000 </r>
      </set>
      <set comment="kpoint 50">
       <r>   -2.8575    1.0000 </r>
       <r>   -1.2363    1.0000 </r>
       <r>    1.3019    1.0000 </r>
       <r>    3.4546    1.0000 </r>
       <r>    7.0971    0.0000 </r>
       <r>   10.9395    0.0000 </r>
       <r>   12.2881    0.0000 </r>
       <r>   12.8161    0.0000 </r>
       <r>   13.1257    0.0000 </r>
       <r>   13.4878    0.0000 </r>
       <r>   20.0845    0.0000 </r>
       <r>   20.6975    0.0000 </r>
       <r>   20.9492    0.0000 </r>
       <r>   20.9675    0.0000 </r>
       <r>   21.7312    0.0000 </r>
       <r>   23.4373    0.0000 </r>
      </set>
      <set comment="kpoint 51">
       <r>   -3.0453    1.0000 </r>
       <r>   -1.0559    1.0000 </r>
       <r>    1.3116    1.0000 </r>
       <r>    3.5748    1.0000 </r>
       <r>    7.2354    0.0000 </r>
       <r>   11.5113    0.0000 </r>
       <r>   11.9498    0.0000 </r>
       <r>   12.5359    0.0000 </r>
       <r>   12.8519    0.0000 </r>
       <r>   13.2077    0.0000 </r>
       <r>   19.7857    0.0000 </r>
       <r>   20.3559    0.0000 </r>
       <r>   21.1169    0.0000 </r>
       <r>   21.2468    0.0000 </r>
       <r>   22.1262    0.0000 </r>
       <r>   22.8167    0.0000 </r>
      </set>
      <set comment="kpoint 52">
       <r>   -3.2483    1.0000 </r>
       <r>   -0.8593    1.0000 </r>
       <r>    1.3616    1.0000 </r>
       <r>    3.7027    1.0000 </r>
       <r>    7.3819    0.0000 </r>
       <r>   11.6236    0.0000 </r>
       <r>   11.7959    0.0000 </r>
       <r>   12.5680    0.0000 </r>
       <r>   12.5902    0.0000 </r>
       <r>   12.9462    0.0000 </r>
       <r>   19.4601    0.0000 </r>
       <r>   20.0282    0.0000 </r>
       <r>   21.2011    0.0000 </r>
       <r>   21.5172    0.0000 </r>
       <r>   22.2295    0.0000 </r>
       <r>   22.5106    0.0000 </r>
      </set>
      <set comment="kpoint 53">
       <r>   -3.4619    1.0000 </r>
       <r>   -0.6466    1.0000 </r>
       <r>    1.4479    1.0000 </r>
       <r>    3.8371    1.0000 </r>
       <r>    7.5346    0.0000 </r>
       <r>   11.3102    0.0000 </r>
       <r>   11.6212    0.0000 </r>
       <r>   12.3430    0.0000 </r>
       <r>   12.7049    0.0000 </r>
       <r>   13.0797    0.0000 </r>
       <r>   19.1367    0.0000 </r>
       <r>   19.7207    0.0000 </r>
       <r>   20.8865    0.0000 </r>
       <r>   21.7773    0.0000 </r>
       <r>   22.0592    0.0000 </r>
       <r>   22.8854    0.0000 </r>
      </set>
      <set comment="kpoint 54">
       <r>   -3.6813    1.0000 </r>
       <r>   -0.4179    1.0000 </r>
       <r>    1.5663    1.0000 </r>
       <r>    3.9766    1.0000 </r>
       <r>    7.6913    0.0000 </r>
       <r>   11.0103    0.0000 </r>
       <r>   11.3466    0.0000 </r>
       <r>   12.1127    0.0000 </r>
       <r>   12.4857    0.0000 </r>
       <r>   13.7043    0.0000 </r>
       <r>   18.8225    0.0000 </r>
       <r>   19.4401    0.0000 </r>
       <r>   20.2565    0.0000 </r>
       <r>   22.0240    0.0000 </r>
       <r>   22.2189    0.0000 </r>
       <r>   23.2535    0.0000 </r>
      </set>
      <set comment="kpoint 55">
       <r>   -3.9025    1.0000 </r>
       <r>   -0.1735    1.0000 </r>
       <r>    1.7131    1.0000 </r>
       <r>    4.1200    1.0000 </r>
       <r>    7.8489    0.0000 </r>
       <r>   10.7242    0.0000 </r>
       <r>   11.0641    0.0000 </r>
       <r>   11.9023    0.0000 </r>
       <r>   12.2904    0.0000 </r>
       <r>   14.3386    0.0000 </r>
       <r>   18.5184    0.0000 </r>
       <r>   19.1964    0.0000 </r>
       <r>   19.5602    0.0000 </r>
       <r>   22.2509    0.0000 </r>
       <r>   22.4617    0.0000 </r>
       <r>   22.8756    0.0000 </r>
      </set>
      <set comment="kpoint 56">
       <r>   -4.1222    1.0000 </r>
       <r>    0.0866    1.0000 </r>
       <r>    1.8849    1.0000 </r>
       <r>    4.2654    1.0000 </r>
       <r>    8.0038    0.0000 </r>
       <r>   10.4524    0.0000 </r>
       <r>   10.7888    0.0000 </r>
       <r>   11.7146    0.0000 </r>
       <r>   12.1206    0.0000 </r>
       <r>   14.9472    0.0000 </r>
       <r>   18.2163    0.0000 </r>
       <r>   18.8674    0.0000 </r>
       <r>   19.0069    0.0000 </r>
       <r>   22.3130    0.0000 </r>
       <r>   22.4457    0.0000 </r>
       <r>   22.7282    0.0000 </r>
      </set>
      <set comment="kpoint 57">
       <r>   -4.3376    1.0000 </r>
       <r>    0.3620    1.0000 </r>
       <r>    2.0785    1.0000 </r>
       <r>    4.4110    1.0000 </r>
       <r>    8.1512    0.0000 </r>
       <r>   10.1951    0.0000 </r>
       <r>   10.5249    0.0000 </r>
       <r>   11.5530    0.0000 </r>
       <r>   11.9783    0.0000 </r>
       <r>   15.4911    0.0000 </r>
       <r>   17.8645    0.0000 </r>
       <r>   18.2471    0.0000 </r>
       <r>   18.9020    0.0000 </r>
       <r>   21.7407    0.0000 </r>
       <r>   22.5866    0.0000 </r>
       <r>   23.0026    0.0000 </r>
      </set>
      <set comment="kpoint 58">
       <r>   -4.5465    1.0000 </r>
       <r>    0.6526    1.0000 </r>
       <r>    2.2915    1.0000 </r>
       <r>    4.5549    1.0000 </r>
       <r>    8.2860    0.0000 </r>
       <r>    9.9526    0.0000 </r>
       <r>   10.2739    0.0000 </r>
       <r>   11.4210    0.0000 </r>
       <r>   11.8655    0.0000 </r>
       <r>   15.9140    0.0000 </r>
       <r>   17.3193    0.0000 </r>
       <r>   17.8509    0.0000 </r>
       <r>   18.9264    0.0000 </r>
       <r>   21.1833    0.0000 </r>
       <r>   22.6382    0.0000 </r>
       <r>   23.2779    0.0000 </r>
      </set>
      <set comment="kpoint 59">
       <r>   -4.7469    1.0000 </r>
       <r>    0.9579    1.0000 </r>
       <r>    2.5214    1.0000 </r>
       <r>    4.6950    1.0000 </r>
       <r>    8.4023    0.0000 </r>
       <r>    9.7251    0.0000 </r>
       <r>   10.0363    0.0000 </r>
       <r>   11.3211    0.0000 </r>
       <r>   11.7839    0.0000 </r>
       <r>   16.1599    0.0000 </r>
       <r>   16.6733    0.0000 </r>
       <r>   17.5920    0.0000 </r>
       <r>   19.1070    0.0000 </r>
       <r>   20.6781    0.0000 </r>
       <r>   22.5556    0.0000 </r>
       <r>   23.5467    0.0000 </r>
      </set>
      <set comment="kpoint 60">
       <r>   -4.9375    1.0000 </r>
       <r>    1.2776    1.0000 </r>
       <r>    2.7659    1.0000 </r>
       <r>    4.8291    1.0000 </r>
       <r>    8.4949    0.0000 </r>
       <r>    9.5127    0.0000 </r>
       <r>    9.8126    0.0000 </r>
       <r>   11.2541    0.0000 </r>
       <r>   11.7353    0.0000 </r>
       <r>   16.0258    0.0000 </r>
       <r>   16.2205    0.0000 </r>
       <r>   17.3774    0.0000 </r>
       <r>   19.3252    0.0000 </r>
       <r>   20.3576    0.0000 </r>
       <r>   22.3113    0.0000 </r>
       <r>   23.7970    0.0000 </r>
      </set>
      <set comment="kpoint 61">
       <r>   -5.1171    1.0000 </r>
       <r>    1.6113    1.0000 </r>
       <r>    3.0226    1.0000 </r>
       <r>    4.9554    1.0000 </r>
       <r>    8.5602    0.0000 </r>
       <r>    9.3156    0.0000 </r>
       <r>    9.6025    0.0000 </r>
       <r>   11.2162    0.0000 </r>
       <r>   11.7211    0.0000 </r>
       <r>   15.4005    0.0000 </r>
       <r>   16.1400    0.0000 </r>
       <r>   17.1912    0.0000 </r>
       <r>   19.2067    0.0000 </r>
       <r>   20.5563    0.0000 </r>
       <r>   21.9231    0.0000 </r>
       <r>   24.0053    0.0000 </r>
      </set>
      <set comment="kpoint 62">
       <r>   -5.2848    1.0000 </r>
       <r>    1.9583    1.0000 </r>
       <r>    3.2892    1.0000 </r>
       <r>    5.0720    1.0000 </r>
       <r>    8.5975    0.0000 </r>
       <r>    9.1339    0.0000 </r>
       <r>    9.4061    0.0000 </r>
       <r>   11.1970    0.0000 </r>
       <r>   11.7424    0.0000 </r>
       <r>   14.8119    0.0000 </r>
       <r>   15.9680    0.0000 </r>
       <r>   17.0306    0.0000 </r>
       <r>   18.8432    0.0000 </r>
       <r>   21.1357    0.0000 </r>
       <r>   21.4389    0.0000 </r>
       <r>   24.1242    0.0000 </r>
      </set>
      <set comment="kpoint 63">
       <r>   -5.4397    1.0000 </r>
       <r>    2.3178    1.0000 </r>
       <r>    3.5631    1.0000 </r>
       <r>    5.1776    1.0000 </r>
       <r>    8.6092    0.0000 </r>
       <r>    8.9677    0.0000 </r>
       <r>    9.2231    0.0000 </r>
       <r>   11.1761    0.0000 </r>
       <r>   11.7994    0.0000 </r>
       <r>   14.2778    0.0000 </r>
       <r>   15.7372    0.0000 </r>
       <r>   16.8957    0.0000 </r>
       <r>   18.4578    0.0000 </r>
       <r>   20.9036    0.0000 </r>
       <r>   21.8432    0.0000 </r>
       <r>   24.0789    0.0000 </r>
      </set>
      <set comment="kpoint 64">
       <r>   -5.5814    1.0000 </r>
       <r>    2.6887    1.0000 </r>
       <r>    3.8412    1.0000 </r>
       <r>    5.2711    1.0000 </r>
       <r>    8.5999    0.0000 </r>
       <r>    8.8172    0.0000 </r>
       <r>    9.0532    0.0000 </r>
       <r>   11.1214    0.0000 </r>
       <r>   11.8917    0.0000 </r>
       <r>   13.8240    0.0000 </r>
       <r>   15.4668    0.0000 </r>
       <r>   16.7874    0.0000 </r>
       <r>   18.1049    0.0000 </r>
       <r>   20.3474    0.0000 </r>
       <r>   22.6072    0.0000 </r>
       <r>   23.8314    0.0000 </r>
      </set>
      <set comment="kpoint 65">
       <r>   -5.7092    1.0000 </r>
       <r>    3.0696    1.0000 </r>
       <r>    4.1199    1.0000 </r>
       <r>    5.3521    1.0000 </r>
       <r>    8.5753    0.0000 </r>
       <r>    8.6823    0.0000 </r>
       <r>    8.8960    0.0000 </r>
       <r>   10.9933    0.0000 </r>
       <r>   12.0177    0.0000 </r>
       <r>   13.4822    0.0000 </r>
       <r>   15.1713    0.0000 </r>
       <r>   16.7067    0.0000 </r>
       <r>   17.7981    0.0000 </r>
       <r>   19.7898    0.0000 </r>
       <r>   23.4016    0.0000 </r>
       <r>   23.4413    0.0000 </r>
      </set>
      <set comment="kpoint 66">
       <r>   -5.8228    1.0000 </r>
       <r>    3.4584    1.0000 </r>
       <r>    4.3951    1.0000 </r>
       <r>    5.4206    1.0000 </r>
       <r>    8.5406    0.0000 </r>
       <r>    8.5631    0.0000 </r>
       <r>    8.7513    0.0000 </r>
       <r>   10.7641    0.0000 </r>
       <r>   12.1744    0.0000 </r>
       <r>   13.2727    0.0000 </r>
       <r>   14.8639    0.0000 </r>
       <r>   16.6547    0.0000 </r>
       <r>   17.5397    0.0000 </r>
       <r>   19.2436    0.0000 </r>
       <r>   22.9913    0.0000 </r>
       <r>   24.2117    0.0000 </r>
      </set>
      <set comment="kpoint 67">
       <r>   -5.9218    1.0000 </r>
       <r>    3.8518    1.0000 </r>
       <r>    4.6615    1.0000 </r>
       <r>    5.4773    1.0000 </r>
       <r>    8.4597    0.0000 </r>
       <r>    8.5000    0.0000 </r>
       <r>    8.6189    0.0000 </r>
       <r>   10.4409    0.0000 </r>
       <r>   12.3573    0.0000 </r>
       <r>   13.1821    0.0000 </r>
       <r>   14.5586    0.0000 </r>
       <r>   16.6315    0.0000 </r>
       <r>   17.3274    0.0000 </r>
       <r>   18.7191    0.0000 </r>
       <r>   22.5334    0.0000 </r>
       <r>   25.0258    0.0000 </r>
      </set>
      <set comment="kpoint 68">
       <r>   -6.0060    1.0000 </r>
       <r>    4.2450    1.0000 </r>
       <r>    4.9125    1.0000 </r>
       <r>    5.5228    1.0000 </r>
       <r>    8.3722    0.0000 </r>
       <r>    8.4561    0.0000 </r>
       <r>    8.4991    0.0000 </r>
       <r>   10.0595    0.0000 </r>
       <r>   12.5593    0.0000 </r>
       <r>   13.1719    0.0000 </r>
       <r>   14.2696    0.0000 </r>
       <r>   16.6355    0.0000 </r>
       <r>   17.1566    0.0000 </r>
       <r>   18.2263    0.0000 </r>
       <r>   22.0971    0.0000 </r>
       <r>   25.8313    0.0000 </r>
      </set>
      <set comment="kpoint 69">
       <r>   -6.0752    1.0000 </r>
       <r>    4.6297    1.0000 </r>
       <r>    5.1403    1.0000 </r>
       <r>    5.5581    1.0000 </r>
       <r>    8.3006    0.0000 </r>
       <r>    8.3932    0.0000 </r>
       <r>    8.4092    0.0000 </r>
       <r>    9.6622    0.0000 </r>
       <r>   12.7705    0.0000 </r>
       <r>   13.2028    0.0000 </r>
       <r>   14.0105    0.0000 </r>
       <r>   16.6625    0.0000 </r>
       <r>   17.0230    0.0000 </r>
       <r>   17.7768    0.0000 </r>
       <r>   21.7026    0.0000 </r>
       <r>   26.6096    0.0000 </r>
      </set>
      <set comment="kpoint 70">
       <r>   -6.1291    1.0000 </r>
       <r>    4.9918    1.0000 </r>
       <r>    5.3352    1.0000 </r>
       <r>    5.5843    1.0000 </r>
       <r>    8.2448    0.0000 </r>
       <r>    8.3034    0.0000 </r>
       <r>    8.3557    0.0000 </r>
       <r>    9.2903    0.0000 </r>
       <r>   12.9760    0.0000 </r>
       <r>   13.2472    0.0000 </r>
       <r>   13.7936    0.0000 </r>
       <r>   16.7045    0.0000 </r>
       <r>   16.9228    0.0000 </r>
       <r>   17.3859    0.0000 </r>
       <r>   21.3676    0.0000 </r>
       <r>   27.3302    0.0000 </r>
      </set>
      <set comment="kpoint 71">
       <r>   -6.1678    1.0000 </r>
       <r>    5.3063    1.0000 </r>
       <r>    5.4864    1.0000 </r>
       <r>    5.6023    1.0000 </r>
       <r>    8.2050    0.0000 </r>
       <r>    8.2336    0.0000 </r>
       <r>    8.2884    0.0000 </r>
       <r>    8.9902    0.0000 </r>
[...]
       </set>
       <set comment="band 12">
        <r>  0.0000  0.0000  0.0000  0.0000  0.0000  0.0000  0.0000  0.0000  0.0000 </r>
        <r>  0.0000  0.0000  0.0000  0.0000  0.0000  0.0000  0.0000  0.0000  0.0000 </r>
       </set>
       <set comment="band 13">
        <r>  0.0000  0.0000  0.0159  0.0477  0.0000  0.0000  0.0000  0.0000  0.0000 </r>
        <r>  0.0000  0.0000  0.0159  0.0477  0.0000  0.0000  0.0000  0.0000  0.0000 </r>
       </set>
       <set comment="band 14">
        <r>  0.0344  0.0523  0.0694  0.0231  0.0000  0.0000  0.0000  0.0000  0.0000 </r>
        <r>  0.0344  0.0523  0.0694  0.0231  0.0000  0.0000  0.0000  0.0000  0.0000 </r>
       </set>
       <set comment="band 15">
        <r>  0.0130  0.0051  0.0024  0.0008  0.0000  0.0000  0.0000  0.0000  0.0000 </r>
        <r>  0.0130  0.0051  0.0024  0.0008  0.0000  0.0000  0.0000  0.0000  0.0000 </r>
       </set>
       <set comment="band 16">
        <r>  0.0057  0.0174  0.0082  0.0027  0.0000  0.0000  0.0000  0.0000  0.0000 </r>
        <r>  0.0057  0.0174  0.0082  0.0027  0.0000  0.0000  0.0000  0.0000  0.0000 </r>
       </set>
      </set>
      <set comment="kpoint 160">
       <set comment="band 1">
        <r>  0.1990  0.0141  0.0201  0.0067  0.0000  0.0000  0.0000  0.0000  0.0000 </r>
        <r>  0.1990  0.0141  0.0201  0.0067  0.0000  0.0000  0.0000  0.0000  0.0000 </r>
       </set>
       <set comment="band 2">
        <r>  0.1913  0.0160  0.0224  0.0075  0.0000  0.0000  0.0000  0.0000  0.0000 </r>
        <r>  0.1913  0.0160  0.0224  0.0075  0.0000  0.0000  0.0000  0.0000  0.0000 </r>
       </set>
       <set comment="band 3">
        <r>  0.0025  0.1104  0.0465  0.0155  0.0000  0.0000  0.0000  0.0000  0.0000 </r>
        <r>  0.0025  0.1104  0.0465  0.0155  0.0000  0.0000  0.0000  0.0000  0.0000 </r>
       </set>
       <set comment="band 4">
        <r>  0.0000  0.0000  0.0489  0.1467  0.0000  0.0000  0.0000  0.0000  0.0000 </r>
        <r>  0.0000  0.0000  0.0489  0.1467  0.0000  0.0000  0.0000  0.0000  0.0000 </r>
       </set>
       <set comment="band 5">
        <r>  0.0513  0.0125  0.0186  0.0062  0.0000  0.0000  0.0000  0.0000  0.0000 </r>
        <r>  0.0513  0.0125  0.0186  0.0062  0.0000  0.0000  0.0000  0.0000  0.0000 </r>
       </set>
       <set comment="band 6">
        <r>  0.0415  0.0319  0.0221  0.0074  0.0000  0.0000  0.0000  0.0000  0.0000 </r>
        <r>  0.0415  0.0319  0.0221  0.0074  0.0000  0.0000  0.0000  0.0000  0.0000 </r>
       </set>
       <set comment="band 7">
        <r>  0.0000  0.0000  0.0475  0.1426  0.0000  0.0000  0.0000  0.0000  0.0000 </r>
        <r>  0.0000  0.0000  0.0475  0.1426  0.0000  0.0000  0.0000  0.0000  0.0000 </r>
       </set>
       <set comment="band 8">
        <r>  0.0200  0.1390  0.0596  0.0199  0.0000  0.0000  0.0000  0.0000  0.0000 </r>
        <r>  0.0200  0.1390  0.0596  0.0199  0.0000  0.0000  0.0000  0.0000  0.0000 </r>
       </set>
       <set comment="band 9">
        <r>  0.0193  0.0249  0.0342  0.0114  0.0000  0.0000  0.0000  0.0000  0.0000 </r>
        <r>  0.0193  0.0249  0.0342  0.0114  0.0000  0.0000  0.0000  0.0000  0.0000 </r>
       </set>
       <set comment="band 10">
        <r>  0.0000  0.0000  0.0029  0.0086  0.0000  0.0000  0.0000  0.0000  0.0000 </r>
        <r>  0.0000  0.0000  0.0029  0.0086  0.0000  0.0000  0.0000  0.0000  0.0000 </r>
       </set>
       <set comment="band 11">
        <r>  0.0000  0.0000  0.0000  0.0001  0.0000  0.0000  0.0000  0.0000  0.0000 </r>
        <r>  0.0000  0.0000  0.0000  0.0001  0.0000  0.0000  0.0000  0.0000  0.0000 </r>
       </set>
       <set comment="band 12">
        <r>  0.0374  0.0867  0.1032  0.0344  0.0000  0.0000  0.0000  0.0000  0.0000 </r>
        <r>  0.0374  0.0867  0.1032  0.0344  0.0000  0.0000  0.0000  0.0000  0.0000 </r>
       </set>
       <set comment="band 13">
        <r>  0.0000  0.0000  0.0131  0.0392  0.0000  0.0000  0.0000  0.0000  0.0000 </r>
        <r>  0.0000  0.0000  0.0131  0.0392  0.0000  0.0000  0.0000  0.0000  0.0000 </r>
       </set>
       <set comment="band 14">
        <r>  0.0380  0.0534  0.0733  0.0244  0.0000  0.0000  0.0000  0.0000  0.0000 </r>
        <r>  0.0380  0.0534  0.0733  0.0244  0.0000  0.0000  0.0000  0.0000  0.0000 </r>
       </set>
       <set comment="band 15">
        <r>  0.0114  0.0055  0.0026  0.0008  0.0000  0.0000  0.0000  0.0000  0.0000 </r>
        <r>  0.0112  0.0054  0.0025  0.0008  0.0000  0.0000  0.0000  0.0000  0.0000 </r>
       </set>
       <set comment="band 16">
        <r>  0.0021  0.0179  0.0086  0.0028  0.0000  0.0000  0.0000  0.0000  0.0000 </r>
        <r>  0.0021  0.0179  0.0086  0.0029  0.0000  0.0000  0.0000  0.0000  0.0000 </r>
       </set>
      </set>
      <set comment="kpoint 161">
       <set comment="band 1">
        <r>  0.1966  0.0143  0.0209  0.0070  0.0000  0.0000  0.0000  0.0000  0.0000 </r>
        <r>  0.1966  0.0143  0.0209  0.0070  0.0000  0.0000  0.0000  0.0000  0.0000 </r>
       </set>
       <set comment="band 2">
        <r>  0.1921  0.0154  0.0222  0.0074  0.0000  0.0000  0.0000  0.0000  0.0000 </r>
        <r>  0.1921  0.0154  0.0222  0.0074  0.0000  0.0000  0.0000  0.0000  0.0000 </r>
       </set>
       <set comment="band 3">
        <r>  0.0022  0.1166  0.0470  0.0157  0.0000  0.0000  0.0000  0.0000  0.0000 </r>
        <r>  0.0022  0.1166  0.0470  0.0157  0.0000  0.0000  0.0000  0.0000  0.0000 </r>
       </set>
       <set comment="band 4">
        <r>  0.0000  0.0000  0.0488  0.1465  0.0000  0.0000  0.0000  0.0000  0.0000 </r>
        <r>  0.0000  0.0000  0.0488  0.1465  0.0000  0.0000  0.0000  0.0000  0.0000 </r>
       </set>
       <set comment="band 5">
        <r>  0.0512  0.0123  0.0184  0.0061  0.0000  0.0000  0.0000  0.0000  0.0000 </r>
        <r>  0.0512  0.0123  0.0184  0.0061  0.0000  0.0000  0.0000  0.0000  0.0000 </r>
       </set>
       <set comment="band 6">
        <r>  0.0448  0.0256  0.0209  0.0070  0.0000  0.0000  0.0000  0.0000  0.0000 </r>
        <r>  0.0448  0.0256  0.0209  0.0070  0.0000  0.0000  0.0000  0.0000  0.0000 </r>
       </set>
       <set comment="band 7">
        <r>  0.0000  0.0000  0.0507  0.1522  0.0000  0.0000  0.0000  0.0000  0.0000 </r>
        <r>  0.0000  0.0000  0.0507  0.1522  0.0000  0.0000  0.0000  0.0000  0.0000 </r>
       </set>
       <set comment="band 8">
        <r>  0.0131  0.1462  0.0600  0.0200  0.0000  0.0000  0.0000  0.0000  0.0000 </r>
        <r>  0.0131  0.1462  0.0600  0.0200  0.0000  0.0000  0.0000  0.0000  0.0000 </r>
       </set>
       <set comment="band 9">
        <r>  0.0152  0.0215  0.0278  0.0093  0.0000  0.0000  0.0000  0.0000  0.0000 </r>
        <r>  0.0152  0.0215  0.0278  0.0093  0.0000  0.0000  0.0000  0.0000  0.0000 </r>
       </set>
       <set comment="band 10">
        <r>  0.0000  0.0000  0.0028  0.0083  0.0000  0.0000  0.0000  0.0000  0.0000 </r>
        <r>  0.0000  0.0000  0.0028  0.0083  0.0000  0.0000  0.0000  0.0000  0.0000 </r>
       </set>
       <set comment="band 11">
        <r>  0.0000  0.0000  0.0001  0.0002  0.0000  0.0000  0.0000  0.0000  0.0000 </r>
        <r>  0.0000  0.0000  0.0001  0.0002  0.0000  0.0000  0.0000  0.0000  0.0000 </r>
       </set>
       <set comment="band 12">
        <r>  0.0000  0.0000  0.0096  0.0288  0.0000  0.0000  0.0000  0.0000  0.0000 </r>
        <r>  0.0000  0.0000  0.0096  0.0288  0.0000  0.0000  0.0000  0.0000  0.0000 </r>
       </set>
       <set comment="band 13">
        <r>  0.0443  0.0809  0.1032  0.0344  0.0000  0.0000  0.0000  0.0000  0.0000 </r>
        <r>  0.0443  0.0809  0.1032  0.0344  0.0000  0.0000  0.0000  0.0000  0.0000 </r>
       </set>
       <set comment="band 14">
        <r>  0.0421  0.0559  0.0792  0.0264  0.0000  0.0000  0.0000  0.0000  0.0000 </r>
        <r>  0.0421  0.0559  0.0792  0.0264  0.0000  0.0000  0.0000  0.0000  0.0000 </r>
       </set>
       <set comment="band 15">
        <r>  0.0100  0.0054  0.0025  0.0008  0.0000  0.0000  0.0000  0.0000  0.0000 </r>
        <r>  0.0097  0.0053  0.0025  0.0008  0.0000  0.0000  0.0000  0.0000  0.0000 </r>
       </set>
       <set comment="band 16">
        <r>  0.0001  0.0162  0.0078  0.0026  0.0000  0.0000  0.0000  0.0000  0.0000 </r>
        <r>  0.0001  0.0161  0.0078  0.0027  0.0000  0.0000  0.0000  0.0000  0.0000 </r>
       </set>
      </set>
      <set comment="kpoint 162">
       <set comment="band 1">
        <r>  0.1947  0.0145  0.0215  0.0072  0.0000  0.0000  0.0000  0.0000  0.0000 </r>
        <r>  0.1947  0.0145  0.0215  0.0072  0.0000  0.0000  0.0000  0.0000  0.0000 </r>
       </set>
       <set comment="band 2">
        <r>  0.1927  0.0150  0.0221  0.0074  0.0000  0.0000  0.0000  0.0000  0.0000 </r>
        <r>  0.1927  0.0150  0.0221  0.0074  0.0000  0.0000  0.0000  0.0000  0.0000 </r>
       </set>
       <set comment="band 3">
        <r>  0.0014  0.1229  0.0477  0.0159  0.0000  0.0000  0.0000  0.0000  0.0000 </r>
        <r>  0.0014  0.1229  0.0477  0.0159  0.0000  0.0000  0.0000  0.0000  0.0000 </r>
       </set>
       <set comment="band 4">
        <r>  0.0000  0.0000  0.0488  0.1463  0.0000  0.0000  0.0000  0.0000  0.0000 </r>
        <r>  0.0000  0.0000  0.0488  0.1463  0.0000  0.0000  0.0000  0.0000  0.0000 </r>
       </set>
       <set comment="band 5">
        <r>  0.0511  0.0122  0.0182  0.0061  0.0000  0.0000  0.0000  0.0000  0.0000 </r>
        <r>  0.0511  0.0122  0.0182  0.0061  0.0000  0.0000  0.0000  0.0000  0.0000 </r>
       </set>
       <set comment="band 6">
        <r>  0.0479  0.0192  0.0196  0.0065  0.0000  0.0000  0.0000  0.0000  0.0000 </r>
        <r>  0.0479  0.0192  0.0196  0.0065  0.0000  0.0000  0.0000  0.0000  0.0000 </r>
       </set>
       <set comment="band 7">
        <r>  0.0000  0.0000  0.0546  0.1637  0.0000  0.0000  0.0000  0.0000  0.0000 </r>
        <r>  0.0000  0.0000  0.0546  0.1638  0.0000  0.0000  0.0000  0.0000  0.0000 </r>
       </set>
       <set comment="band 8">
        <r>  0.0066  0.1529  0.0601  0.0200  0.0000  0.0000  0.0000  0.0000  0.0000 </r>
        <r>  0.0066  0.1529  0.0601  0.0200  0.0000  0.0000  0.0000  0.0000  0.0000 </r>
       </set>
       <set comment="band 9">
        <r>  0.0098  0.0167  0.0191  0.0064  0.0000  0.0000  0.0000  0.0000  0.0000 </r>
        <r>  0.0098  0.0167  0.0191  0.0064  0.0000  0.0000  0.0000  0.0000  0.0000 </r>
       </set>
       <set comment="band 10">
        <r>  0.0000  0.0000  0.0027  0.0082  0.0000  0.0000  0.0000  0.0000  0.0000 </r>
        <r>  0.0000  0.0000  0.0027  0.0082  0.0000  0.0000  0.0000  0.0000  0.0000 </r>
       </set>
       <set comment="band 11">
        <r>  0.0000  0.0000  0.0056  0.0167  0.0000  0.0000  0.0000  0.0000  0.0000 </r>
        <r>  0.0000  0.0000  0.0056  0.0167  0.0000  0.0000  0.0000  0.0000  0.0000 </r>
       </set>
       <set comment="band 12">
        <r>  0.0000  0.0000  0.0001  0.0002  0.0000  0.0000  0.0000  0.0000  0.0000 </r>
        <r>  0.0000  0.0000  0.0001  0.0002  0.0000  0.0000  0.0000  0.0000  0.0000 </r>
       </set>
       <set comment="band 13">
        <r>  0.0507  0.0753  0.1034  0.0345  0.0000  0.0000  0.0000  0.0000  0.0000 </r>
        <r>  0.0507  0.0753  0.1034  0.0345  0.0000  0.0000  0.0000  0.0000  0.0000 </r>
       </set>
       <set comment="band 14">
        <r>  0.0475  0.0602  0.0876  0.0292  0.0000  0.0000  0.0000  0.0000  0.0000 </r>
        <r>  0.0475  0.0602  0.0876  0.0292  0.0000  0.0000  0.0000  0.0000  0.0000 </r>
       </set>
       <set comment="band 15">
        <r>  0.0084  0.0044  0.0023  0.0008  0.0000  0.0000  0.0000  0.0000  0.0000 </r>
        <r>  0.0087  0.0046  0.0023  0.0008  0.0000  0.0000  0.0000  0.0000  0.0000 </r>
       </set>
       <set comment="band 16">
        <r>  0.0009  0.0112  0.0057  0.0019  0.0000  0.0000  0.0000  0.0000  0.0000 </r>
        <r>  0.0009  0.0113  0.0057  0.0019  0.0000  0.0000  0.0000  0.0000  0.0000 </r>
       </set>
      </set>
      <set comment="kpoint 163">
       <set comment="band 1">
        <r>  0.1936  0.0146  0.0218  0.0073  0.0000  0.0000  0.0000  0.0000  0.0000 </r>
        <r>  0.1936  0.0146  0.0218  0.0073  0.0000  0.0000  0.0000  0.0000  0.0000 </r>
       </set>
       <set comment="band 2">
        <r>  0.1931  0.0147  0.0220  0.0073  0.0000  0.0000  0.0000  0.0000  0.0000 </r>
        <r>  0.1931  0.0147  0.0220  0.0073  0.0000  0.0000  0.0000  0.0000  0.0000 </r>
       </set>
       <set comment="band 3">
        <r>  0.0004  0.1280  0.0484  0.0161  0.0000  0.0000  0.0000  0.0000  0.0000 </r>
        <r>  0.0004  0.1280  0.0484  0.0161  0.0000  0.0000  0.0000  0.0000  0.0000 </r>
       </set>
       <set comment="band 4">
        <r>  0.0000  0.0000  0.0487  0.1462  0.0000  0.0000  0.0000  0.0000  0.0000 </r>
        <r>  0.0000  0.0000  0.0487  0.1462  0.0000  0.0000  0.0000  0.0000  0.0000 </r>
       </set>
       <set comment="band 5">
        <r>  0.0511  0.0121  0.0181  0.0060  0.0000  0.0000  0.0000  0.0000  0.0000 </r>
        <r>  0.0511  0.0121  0.0181  0.0060  0.0000  0.0000  0.0000  0.0000  0.0000 </r>
       </set>
       <set comment="band 6">
        <r>  0.0502  0.0141  0.0185  0.0062  0.0000  0.0000  0.0000  0.0000  0.0000 </r>
        <r>  0.0502  0.0141  0.0185  0.0062  0.0000  0.0000  0.0000  0.0000  0.0000 </r>
       </set>
       <set comment="band 7">
        <r>  0.0000  0.0000  0.0583  0.1749  0.0000  0.0000  0.0000  0.0000  0.0000 </r>
        <r>  0.0000  0.0000  0.0583  0.1749  0.0000  0.0000  0.0000  0.0000  0.0000 </r>
       </set>
       <set comment="band 8">
        <r>  0.0018  0.1580  0.0600  0.0200  0.0000  0.0000  0.0000  0.0000  0.0000 </r>
        <r>  0.0018  0.1580  0.0600  0.0200  0.0000  0.0000  0.0000  0.0000  0.0000 </r>
       </set>
       <set comment="band 9">
        <r>  0.0035  0.0107  0.0086  0.0029  0.0000  0.0000  0.0000  0.0000  0.0000 </r>
        <r>  0.0035  0.0107  0.0086  0.0029  0.0000  0.0000  0.0000  0.0000  0.0000 </r>
       </set>
       <set comment="band 10">
        <r>  0.0000  0.0000  0.0027  0.0082  0.0000  0.0000  0.0000  0.0000  0.0000 </r>
        <r>  0.0000  0.0000  0.0027  0.0082  0.0000  0.0000  0.0000  0.0000  0.0000 </r>
       </set>
       <set comment="band 11">
        <r>  0.0000  0.0000  0.0017  0.0051  0.0000  0.0000  0.0000  0.0000  0.0000 </r>
        <r>  0.0000  0.0000  0.0017  0.0051  0.0000  0.0000  0.0000  0.0000  0.0000 </r>
       </set>
       <set comment="band 12">
        <r>  0.0000  0.0000  0.0000  0.0001  0.0000  0.0000  0.0000  0.0000  0.0000 </r>
        <r>  0.0000  0.0000  0.0000  0.0001  0.0000  0.0000  0.0000  0.0000  0.0000 </r>
       </set>
       <set comment="band 13">
        <r>  0.0554  0.0708  0.1036  0.0345  0.0000  0.0000  0.0000  0.0000  0.0000 </r>
        <r>  0.0554  0.0708  0.1036  0.0345  0.0000  0.0000  0.0000  0.0000  0.0000 </r>
       </set>
       <set comment="band 14">
        <r>  0.0537  0.0658  0.0979  0.0326  0.0000  0.0000  0.0000  0.0000  0.0000 </r>
        <r>  0.0537  0.0658  0.0979  0.0326  0.0000  0.0000  0.0000  0.0000  0.0000 </r>
       </set>
       <set comment="band 15">
        <r>  0.0077  0.0023  0.0018  0.0005  0.0000  0.0000  0.0000  0.0000  0.0000 </r>
        <r>  0.0078  0.0026  0.0018  0.0006  0.0000  0.0000  0.0000  0.0000  0.0000 </r>
       </set>
       <set comment="band 16">
        <r>  0.0048  0.0045  0.0030  0.0007  0.0000  0.0000  0.0000  0.0000  0.0000 </r>
        <r>  0.0047  0.0044  0.0028  0.0010  0.0000  0.0000  0.0000  0.0000  0.0000 </r>
       </set>
      </set>
      <set comment="kpoint 164">
       <set comment="band 1">
        <r>  0.1929  0.0147  0.0220  0.0073  0.0000  0.0000  0.0000  0.0000  0.0000 </r>
        <r>  0.1935  0.0146  0.0219  0.0073  0.0000  0.0000  0.0000  0.0000  0.0000 </r>
       </set>
       <set comment="band 2">
        <r>  0.1935  0.0146  0.0219  0.0073  0.0000  0.0000  0.0000  0.0000  0.0000 </r>
        <r>  0.1929  0.0147  0.0220  0.0073  0.0000  0.0000  0.0000  0.0000  0.0000 </r>
       </set>
       <set comment="band 3">
        <r>  0.0000  0.0000  0.0489  0.1460  0.0000  0.0000  0.0000  0.0000  0.0000 </r>
        <r>  0.0000  0.0000  0.0485  0.1464  0.0000  0.0000  0.0000  0.0000  0.0000 </r>
       </set>
       <set comment="band 4">
        <r>  0.0000  0.1300  0.0485  0.0164  0.0000  0.0000  0.0000  0.0000  0.0000 </r>
        <r>  0.0000  0.1300  0.0489  0.0160  0.0000  0.0000  0.0000  0.0000  0.0000 </r>
       </set>
       <set comment="band 5">
        <r>  0.0512  0.0121  0.0181  0.0060  0.0000  0.0000  0.0000  0.0000  0.0000 </r>
        <r>  0.0511  0.0121  0.0181  0.0060  0.0000  0.0000  0.0000  0.0000  0.0000 </r>
       </set>
       <set comment="band 6">
        <r>  0.0511  0.0121  0.0181  0.0060  0.0000  0.0000  0.0000  0.0000  0.0000 </r>
        <r>  0.0512  0.0121  0.0181  0.0060  0.0000  0.0000  0.0000  0.0000  0.0000 </r>
       </set>
       <set comment="band 7">
        <r>  0.0000  0.1143  0.0092  0.1164  0.0000  0.0000  0.0000  0.0000  0.0000 </r>
        <r>  0.0000  0.1143  0.1108  0.0148  0.0000  0.0000  0.0000  0.0000  0.0000 </r>
       </set>
       <set comment="band 8">
        <r>  0.0000  0.0456  0.1108  0.0835  0.0000  0.0000  0.0000  0.0000  0.0000 </r>
        <r>  0.0000  0.0456  0.0092  0.1851  0.0000  0.0000  0.0000  0.0000  0.0000 </r>
       </set>
       <set comment="band 9">
        <r>  0.0000  0.0074  0.0028  0.0009  0.0000  0.0000  0.0000  0.0000  0.0000 </r>
        <r>  0.0000  0.0074  0.0028  0.0009  0.0000  0.0000  0.0000  0.0000  0.0000 </r>
       </set>
       <set comment="band 10">
        <r>  0.0000  0.0000  0.0028  0.0083  0.0000  0.0000  0.0000  0.0000  0.0000 </r>
        <r>  0.0000  0.0000  0.0028  0.0083  0.0000  0.0000  0.0000  0.0000  0.0000 </r>
       </set>
       <set comment="band 11">
        <r>  0.0000  0.0000  0.0000  0.0000  0.0000  0.0000  0.0000  0.0000  0.0000 </r>
        <r>  0.0000  0.0000  0.0000  0.0000  0.0000  0.0000  0.0000  0.0000  0.0000 </r>
       </set>
       <set comment="band 12">
        <r>  0.0000  0.0000  0.0000  0.0000  0.0000  0.0000  0.0000  0.0000  0.0000 </r>
        <r>  0.0000  0.0000  0.0000  0.0000  0.0000  0.0000  0.0000  0.0000  0.0000 </r>
       </set>
       <set comment="band 13">
        <r>  0.0575  0.0687  0.1031  0.0344  0.0000  0.0000  0.0000  0.0000  0.0000 </r>
        <r>  0.0569  0.0695  0.1043  0.0348  0.0000  0.0000  0.0000  0.0000  0.0000 </r>
       </set>
       <set comment="band 14">
        <r>  0.0569  0.0695  0.1043  0.0348  0.0000  0.0000  0.0000  0.0000  0.0000 </r>
        <r>  0.0575  0.0687  0.1031  0.0344  0.0000  0.0000  0.0000  0.0000  0.0000 </r>
       </set>
       <set comment="band 15">
        <r>  0.0039  0.0013  0.0017  0.0007  0.0000  0.0000  0.0000  0.0000  0.0000 </r>
        <r>  0.0108  0.0005  0.0007  0.0002  0.0000  0.0000  0.0000  0.0000  0.0000 </r>
       </set>
       <set comment="band 16">
        <r>  0.0111  0.0003  0.0008  0.0002  0.0000  0.0000  0.0000  0.0000  0.0000 </r>
        <r>  0.0039  0.0010  0.0020  0.0006  0.0000  0.0000  0.0000  0.0000  0.0000 </r>
       </set>
      </set>
     </set>
    </set>
   </array>
  </projected>
 </calculation>
 <structure name="finalpos" >
  <crystal>
   <varray name="basis" >
    <v>       3.34889800       0.00000000       1.93348700 </v>
    <v>       1.11629900       3.15737200       1.93348700 </v>
    <v>       0.00000000       0.00000000       3.86697500 </v>
   </varray>
   <i name="volume">     40.88829843 </i>
   <varray name="rec_basis" >
    <v>       0.29860569      -0.10557300       0.00000000 </v>
    <v>       0.00000000       0.31671909       0.00000000 </v>
    <v>      -0.14930281      -0.10557302       0.25860007 </v>
   </varray>
  </crystal>
  <varray name="positions" >
   <v>       0.25000000       0.25000000       0.25000000 </v>
   <v>       0.00000000       0.00000000       0.00000000 </v>
  </varray>
 </structure>
</modeling>
