 vasp.6.1.2 22Jul20 (build Dec 10 2020 10:33:42) complex                        
  
 executed on             LinuxIFC date 2022.08.31  16:10:17
 running on  144 total cores
 distrk:  each k-point on  144 cores,    1 groups
 distr:  one band on NCORE=   1 cores,  144 groups


--------------------------------------------------------------------------------------------------------


 INCAR:
 POTCAR:    PAW_PBE Si 05Jan2001                  
 WARNING: For LVTOT=.TRUE., VASP.5.x writes the TOTAL local potential to the
     file LOCPOT. If you want only the Hartree contributions, use LVHAR=.TRUE.
     instead. 

 -----------------------------------------------------------------------------
|                                                                             |
|           W    W    AA    RRRRR   N    N  II  N    N   GGGG   !!!           |
|           W    W   A  A   R    R  NN   N  II  NN   N  G    G  !!!           |
|           W    W  A    A  R    R  N N  N  II  N N  N  G       !!!           |
|           W WW W  AAAAAA  RRRRR   N  N N  II  N  N N  G  GGG   !            |
|           WW  WW  A    A  R   R   N   NN  II  N   NN  G    G                |
|           W    W  A    A  R    R  N    N  II  N    N   GGGG   !!!           |
|                                                                             |
|     For optimal performance we recommend to set                             |
|       NCORE = 4 - approx SQRT(number of cores).                             |
|     NCORE specifies how many cores store one orbital (NPAR=cpu/NCORE).      |
|     This setting can greatly improve the performance of VASP for DFT.       |
|     The default, NCORE=1 might be grossly inefficient on modern             |
|     multi-core architectures or massively parallel machines. Do your        |
|     own testing!!!!                                                         |
|     Unfortunately you need to use the default for GW and RPA                |
|     calculations (for HF NCORE is supported but not extensively tested      |
|     yet).                                                                   |
|                                                                             |
 -----------------------------------------------------------------------------

 POTCAR:    PAW_PBE Si 05Jan2001                  
   VRHFIN =Si: s2p2                                                                                 
   LEXCH  = PE                                                                                      
   EATOM  =   103.0669 eV,    7.5752 Ry                                                             
                                                                                                    
   TITEL  = PAW_PBE Si 05Jan2001                                                                    
   LULTRA =        F    use ultrasoft PP ?                                                          
   IUNSCR =        1    unscreen: 0-lin 1-nonlin 2-no                                               
   RPACOR =    1.500    partial core radius                                                         
   POMASS =   28.085; ZVAL   =    4.000    mass and valenz                                          
   RCORE  =    1.900    outmost cutoff radius                                                       
   RWIGS  =    2.480; RWIGS  =    1.312    wigner-seitz radius (au A)                               
   ENMAX  =  245.345; ENMIN  =  184.009 eV                                                          
   ICORE  =        2    local potential                                                             
   LCOR   =        T    correct aug charges                                                         
   LPAW   =        T    paw PP                                                                      
   EAUG   =  322.069                                                                                
   DEXC   =    0.000                                                                                
   RMAX   =    1.950    core radius for proj-oper                                                   
   RAUG   =    1.300    factor for augmentation sphere                                              
   RDEP   =    1.993    radius for radial grids                                                     
   RDEPT  =    1.837    core radius for aug-charge                                                  
                                                                                                    
   Atomic configuration                                                                             
    6 entries                                                                                       
     n  l   j            E        occ.                                                              
     1  0  0.50     -1785.8828   2.0000                                                             
     2  0  0.50      -139.4969   2.0000                                                             
     2  1  1.50       -95.5546   6.0000                                                             
     3  0  0.50       -10.8127   2.0000                                                             
     3  1  0.50        -4.0811   2.0000                                                             
     3  2  1.50        -4.0817   0.0000                                                             
   Description                                                                                      
     l       E           TYP  RCUT    TYP  RCUT                                                     
     0    -10.8127223     23  1.900                                                                 
     0     -7.6451159     23  1.900                                                                 
     1     -4.0811372     23  1.900                                                                 
     1      2.4879257     23  1.900                                                                 
     2     -4.0817478      7  1.900                                                                 
  local pseudopotential read in
  partial core-charges read in
  partial kinetic energy density read in
  atomic valenz-charges read in
  non local Contribution for L=           0  read in
    real space projection operators read in
  non local Contribution for L=           0  read in
    real space projection operators read in
  non local Contribution for L=           1  read in
    real space projection operators read in
  non local Contribution for L=           1  read in
    real space projection operators read in
    PAW grid and wavefunctions read in
 
   number of l-projection  operators is LMAX  =           4
   number of lm-projection operators is LMMAX =           8
 
 -----------------------------------------------------------------------------
|                                                                             |
|               ----> ADVICE to this user running VASP <----                  |
|                                                                             |
|     You enforced a specific xc type in the INCAR file but a different       |
|     type was found in the POTCAR file.                                      |
|     I HOPE YOU KNOW WHAT YOU ARE DOING!                                     |
|                                                                             |
 -----------------------------------------------------------------------------

  PAW_PBE Si 05Jan2001                  :
 energy of atom  1       EATOM= -103.0669
 kinetic energy error for atom=    0.0003 (will be added to EATOM!!)
 
 
 POSCAR: Si2
  positions in direct lattice
  No initial velocities read in
 exchange correlation table for  LEXCH =       14
   RHO(1)=    0.500       N(1)  =     2000
   RHO(2)=  100.500       N(2)  =     4000

 VTST: version 3.2, (02/03/18)

 CHAIN: initializing optimizer
 
 OPT: Using VASP Dynamics algorithm
 CHAIN: Read ICHAIN            0
 
 POSCAR: Si2
  positions in direct lattice
  No initial velocities read in
 


--------------------------------------------------------------------------------------------------------


 ion  position               nearest neighbor table
   1  0.000  0.000  0.000-   2 2.35   2 2.35   2 2.35   2 2.35
   2  0.250  0.250  0.250-   1 2.35   1 2.35   1 2.35   1 2.35
 
  LATTYP: Found a face centered cubic cell.
 ALAT       =     5.4359997400
  
  Lattice vectors:
  
 A1 = (   0.0000000000,   2.7179998700,   2.7179998700)
 A2 = (   2.7179998700,   0.0000000000,   2.7179998700)
 A3 = (   2.7179998700,   2.7179998700,   0.0000000000)


Analysis of symmetry for initial positions (statically):
=====================================================================
 Subroutine PRICEL returns:
 Original cell was already a primitive cell.
 

 Routine SETGRP: Setting up the symmetry group for a 
 face centered cubic supercell.


 Subroutine GETGRP returns: Found 48 space group operations
 (whereof 24 operations were pure point group operations)
 out of a pool of 48 trial point group operations.


The static configuration has the point symmetry T_d .
 The point group associated with its full space group is O_h .


Analysis of symmetry for dynamics (positions and initial velocities):
=====================================================================
 Subroutine PRICEL returns:
 Original cell was already a primitive cell.
 

 Routine SETGRP: Setting up the symmetry group for a 
 face centered cubic supercell.


 Subroutine GETGRP returns: Found 48 space group operations
 (whereof 24 operations were pure point group operations)
 out of a pool of 48 trial point group operations.


The dynamic configuration has the point symmetry T_d .
 The point group associated with its full space group is O_h .


Analysis of structural, dynamic, and magnetic symmetry:
=====================================================================
 Subroutine PRICEL returns:
 Original cell was already a primitive cell.
 

 Routine SETGRP: Setting up the symmetry group for a 
 face centered cubic supercell.


 Subroutine GETGRP returns: Found 48 space group operations
 (whereof 24 operations were pure point group operations)
 out of a pool of 48 trial point group operations.


The magnetic configuration has the point symmetry T_d .
 The point group associated with its full space group is O_h .


 Subroutine INISYM returns: Found 48 space group operations
 (whereof 24 operations are pure point group operations),
 and found     1 'primitive' translations


----------------------------------------------------------------------------------------

                                     Primitive cell                                     

  volume of cell :      40.1586

  direct lattice vectors                    reciprocal lattice vectors
     0.000000000  2.717999870  2.717999870    -0.183958802  0.183958802  0.183958802
     2.717999870  0.000000000  2.717999870     0.183958802 -0.183958802  0.183958802
     2.717999870  2.717999870  0.000000000     0.183958802  0.183958802 -0.183958802

  length of vectors
     3.843832279  3.843832279  3.843832279     0.318625992  0.318625992  0.318625992

  position of ions in fractional coordinates (direct lattice)
     0.000000000  0.000000000  0.000000000
     0.250000000  0.250000000  0.250000000

  ion indices of the primitive-cell ions
   primitive index   ion index
                 1           1
                 2           2

----------------------------------------------------------------------------------------

 
 

Automatic generation of k-mesh.
 generate k-points for:   10   10   10
Space group operators:
 irot       det(A)        alpha          n_x          n_y          n_z        tau_x        tau_y        tau_z
    1     1.000000     0.000000     1.000000     0.000000     0.000000     0.000000     0.000000     0.000000
    2     1.000000   120.000000    -0.577350    -0.577350    -0.577350     0.000000     0.000000     0.000000
    3     1.000000   120.000000     0.577350     0.577350     0.577350     0.000000     0.000000     0.000000
    4    -1.000000    90.000000     0.000000     0.000000    -1.000000     0.000000     0.000000     0.000000
    5    -1.000000   180.000000    -0.000000     0.707107     0.707107     0.000000     0.000000     0.000000
    6    -1.000000    90.000000     0.000000     1.000000     0.000000     0.000000     0.000000     0.000000
    7     1.000000   180.000000     0.000000    -0.000000     1.000000     0.000000     0.000000     0.000000
    8     1.000000   120.000000    -0.577350     0.577350     0.577350     0.000000     0.000000     0.000000
    9     1.000000   120.000000    -0.577350     0.577350    -0.577350     0.000000     0.000000     0.000000
   10    -1.000000    90.000000     0.000000     0.000000     1.000000     0.000000     0.000000     0.000000
   11    -1.000000    90.000000    -1.000000    -0.000000     0.000000     0.000000     0.000000     0.000000
   12    -1.000000   180.000000     0.707107     0.000000     0.707107     0.000000     0.000000     0.000000
   13     1.000000   120.000000     0.577350    -0.577350     0.577350     0.000000     0.000000     0.000000
   14     1.000000   120.000000    -0.577350    -0.577350     0.577350     0.000000     0.000000     0.000000
   15     1.000000   180.000000     1.000000     0.000000     0.000000     0.000000     0.000000     0.000000
   16    -1.000000    90.000000     0.000000    -1.000000     0.000000     0.000000     0.000000     0.000000
   17    -1.000000   180.000000     0.707107     0.707107     0.000000     0.000000     0.000000     0.000000
   18    -1.000000    90.000000     1.000000     0.000000    -0.000000     0.000000     0.000000     0.000000
   19     1.000000   120.000000     0.577350    -0.577350    -0.577350     0.000000     0.000000     0.000000
   20     1.000000   180.000000     0.000000    -1.000000     0.000000     0.000000     0.000000     0.000000
   21     1.000000   120.000000     0.577350     0.577350    -0.577350     0.000000     0.000000     0.000000
   22    -1.000000   180.000000     0.000000    -0.707107     0.707107     0.000000     0.000000     0.000000
   23    -1.000000   180.000000     0.707107    -0.707107    -0.000000     0.000000     0.000000     0.000000
   24    -1.000000   180.000000     0.707107     0.000000    -0.707107     0.000000     0.000000     0.000000
   25    -1.000000     0.000000     1.000000     0.000000     0.000000     0.250000     0.250000     0.250000
   26    -1.000000   120.000000    -0.577350    -0.577350    -0.577350     0.250000     0.250000     0.250000
   27    -1.000000   120.000000     0.577350     0.577350     0.577350     0.250000     0.250000     0.250000
   28     1.000000    90.000000     0.000000     0.000000    -1.000000     0.250000     0.250000     0.250000
   29     1.000000   180.000000    -0.000000     0.707107     0.707107     0.250000     0.250000     0.250000
   30     1.000000    90.000000     0.000000     1.000000     0.000000     0.250000     0.250000     0.250000
   31    -1.000000   180.000000     0.000000    -0.000000     1.000000     0.250000     0.250000     0.250000
   32    -1.000000   120.000000    -0.577350     0.577350     0.577350     0.250000     0.250000     0.250000
   33    -1.000000   120.000000    -0.577350     0.577350    -0.577350     0.250000     0.250000     0.250000
   34     1.000000    90.000000     0.000000     0.000000     1.000000     0.250000     0.250000     0.250000
   35     1.000000    90.000000    -1.000000    -0.000000     0.000000     0.250000     0.250000     0.250000
   36     1.000000   180.000000     0.707107     0.000000     0.707107     0.250000     0.250000     0.250000
   37    -1.000000   120.000000     0.577350    -0.577350     0.577350     0.250000     0.250000     0.250000
   38    -1.000000   120.000000    -0.577350    -0.577350     0.577350     0.250000     0.250000     0.250000
   39    -1.000000   180.000000     1.000000     0.000000     0.000000     0.250000     0.250000     0.250000
   40     1.000000    90.000000     0.000000    -1.000000     0.000000     0.250000     0.250000     0.250000
   41     1.000000   180.000000     0.707107     0.707107     0.000000     0.250000     0.250000     0.250000
   42     1.000000    90.000000     1.000000     0.000000    -0.000000     0.250000     0.250000     0.250000
   43    -1.000000   120.000000     0.577350    -0.577350    -0.577350     0.250000     0.250000     0.250000
   44    -1.000000   180.000000     0.000000    -1.000000     0.000000     0.250000     0.250000     0.250000
   45    -1.000000   120.000000     0.577350     0.577350    -0.577350     0.250000     0.250000     0.250000
   46     1.000000   180.000000     0.000000    -0.707107     0.707107     0.250000     0.250000     0.250000
   47     1.000000   180.000000     0.707107    -0.707107    -0.000000     0.250000     0.250000     0.250000
   48     1.000000   180.000000     0.707107     0.000000    -0.707107     0.250000     0.250000     0.250000
 TETIRR: Found    148 inequivalent tetrahedra from     6000
 
 Subroutine IBZKPT returns following result:
 ===========================================
 
 Found     47 irreducible k-points:
 
 Following reciprocal coordinates:
            Coordinates               Weight
  0.000000  0.000000  0.000000      1.000000
  0.100000  0.000000  0.000000      8.000000
  0.200000 -0.000000 -0.000000      8.000000
  0.300000 -0.000000  0.000000      8.000000
  0.400000 -0.000000 -0.000000      8.000000
  0.500000 -0.000000  0.000000      4.000000
  0.100000  0.100000  0.000000      6.000000
  0.200000  0.100000  0.000000     24.000000
  0.300000  0.100000 -0.000000     24.000000
  0.400000  0.100000  0.000000     24.000000
  0.500000  0.100000 -0.000000     24.000000
 -0.400000  0.100000 -0.000000     24.000000
 -0.300000  0.100000  0.000000     24.000000
 -0.200000  0.100000 -0.000000     24.000000
 -0.100000  0.100000  0.000000     12.000000
  0.200000  0.200000  0.000000      6.000000
  0.300000  0.200000  0.000000     24.000000
  0.400000  0.200000 -0.000000     24.000000
  0.500000  0.200000  0.000000     24.000000
 -0.400000  0.200000 -0.000000     24.000000
 -0.300000  0.200000 -0.000000     24.000000
 -0.200000  0.200000  0.000000     12.000000
  0.300000  0.300000  0.000000      6.000000
  0.400000  0.300000  0.000000     24.000000
  0.500000  0.300000 -0.000000     24.000000
 -0.400000  0.300000  0.000000     24.000000
 -0.300000  0.300000 -0.000000     12.000000
  0.400000  0.400000  0.000000      6.000000
  0.500000  0.400000  0.000000     24.000000
 -0.400000  0.400000 -0.000000     12.000000
  0.500000  0.500000  0.000000      3.000000
  0.300000  0.200000  0.100000     24.000000
  0.400000  0.200000  0.100000     48.000000
  0.500000  0.200000  0.100000     48.000000
 -0.400000  0.200000  0.100000     24.000000
  0.400000  0.300000  0.100000     24.000000
  0.500000  0.300000  0.100000     48.000000
 -0.400000  0.300000  0.100000     48.000000
 -0.300000  0.300000  0.100000     48.000000
 -0.200000  0.300000  0.100000     24.000000
  0.500000  0.400000  0.100000     24.000000
 -0.400000  0.400000  0.100000     48.000000
 -0.300000  0.400000  0.100000     24.000000
 -0.400000  0.500000  0.100000     12.000000
 -0.400000  0.400000  0.200000     24.000000
 -0.300000  0.400000  0.200000     24.000000
 -0.300000  0.500000  0.200000     12.000000
 
 Following cartesian coordinates:
            Coordinates               Weight
  0.000000  0.000000  0.000000      1.000000
 -0.018396  0.018396  0.018396      8.000000
 -0.036792  0.036792  0.036792      8.000000
 -0.055188  0.055188  0.055188      8.000000
 -0.073584  0.073584  0.073584      8.000000
 -0.091979  0.091979  0.091979      4.000000
  0.000000  0.000000  0.036792      6.000000
 -0.018396  0.018396  0.055188     24.000000
 -0.036792  0.036792  0.073584     24.000000
 -0.055188  0.055188  0.091979     24.000000
 -0.073584  0.073584  0.110375     24.000000
  0.091979 -0.091979 -0.055188     24.000000
  0.073584 -0.073584 -0.036792     24.000000
  0.055188 -0.055188 -0.018396     24.000000
  0.036792 -0.036792 -0.000000     12.000000
  0.000000  0.000000  0.073584      6.000000
 -0.018396  0.018396  0.091979     24.000000
 -0.036792  0.036792  0.110375     24.000000
 -0.055188  0.055188  0.128771     24.000000
  0.110375 -0.110375 -0.036792     24.000000
  0.091979 -0.091979 -0.018396     24.000000
  0.073584 -0.073584 -0.000000     12.000000
 -0.000000  0.000000  0.110375      6.000000
 -0.018396  0.018396  0.128771     24.000000
 -0.036792  0.036792  0.147167     24.000000
  0.128771 -0.128771 -0.018396     24.000000
  0.110375 -0.110375  0.000000     12.000000
 -0.000000  0.000000  0.147167      6.000000
 -0.018396  0.018396  0.165563     24.000000
  0.147167 -0.147167  0.000000     12.000000
  0.000000  0.000000  0.183959      3.000000
  0.000000  0.036792  0.073584     24.000000
 -0.018396  0.055188  0.091979     48.000000
 -0.036792  0.073584  0.110375     48.000000
  0.128771 -0.091979 -0.055188     24.000000
 -0.000000  0.036792  0.110375     24.000000
 -0.018396  0.055188  0.128771     48.000000
  0.147167 -0.110375 -0.036792     48.000000
  0.128771 -0.091979 -0.018396     48.000000
  0.110375 -0.073584 -0.000000     24.000000
 -0.000000  0.036792  0.147167     24.000000
  0.165563 -0.128771 -0.018396     48.000000
  0.147167 -0.110375  0.000000     24.000000
  0.183959 -0.147167  0.000000     12.000000
  0.183959 -0.110375 -0.036792     24.000000
  0.165563 -0.091979 -0.018396     24.000000
  0.183959 -0.110375  0.000000     12.000000
 
 
 Subroutine IBZKPT_HF returns following result:
 ==============================================
 
 Found   1000 k-points in 1st BZ
 the following   1000 k-points will be used (e.g. in the exchange kernel)
 Following reciprocal coordinates:   # in IRBZ
  0.000000  0.000000  0.000000    0.00100000   1 t-inv F
  0.100000  0.000000  0.000000    0.00100000   2 t-inv F
  0.200000 -0.000000 -0.000000    0.00100000   3 t-inv F
  0.300000 -0.000000  0.000000    0.00100000   4 t-inv F
  0.400000 -0.000000 -0.000000    0.00100000   5 t-inv F
  0.500000 -0.000000  0.000000    0.00100000   6 t-inv F
  0.100000  0.100000  0.000000    0.00100000   7 t-inv F
  0.200000  0.100000  0.000000    0.00100000   8 t-inv F
  0.300000  0.100000 -0.000000    0.00100000   9 t-inv F
  0.400000  0.100000  0.000000    0.00100000  10 t-inv F
  0.500000  0.100000 -0.000000    0.00100000  11 t-inv F
 -0.400000  0.100000 -0.000000    0.00100000  12 t-inv F
 -0.300000  0.100000  0.000000    0.00100000  13 t-inv F
 -0.200000  0.100000 -0.000000    0.00100000  14 t-inv F
 -0.100000  0.100000  0.000000    0.00100000  15 t-inv F
  0.200000  0.200000  0.000000    0.00100000  16 t-inv F
  0.300000  0.200000  0.000000    0.00100000  17 t-inv F
  0.400000  0.200000 -0.000000    0.00100000  18 t-inv F
  0.500000  0.200000  0.000000    0.00100000  19 t-inv F
 -0.400000  0.200000 -0.000000    0.00100000  20 t-inv F
 -0.300000  0.200000 -0.000000    0.00100000  21 t-inv F
 -0.200000  0.200000  0.000000    0.00100000  22 t-inv F
  0.300000  0.300000  0.000000    0.00100000  23 t-inv F
  0.400000  0.300000  0.000000    0.00100000  24 t-inv F
  0.500000  0.300000 -0.000000    0.00100000  25 t-inv F
 -0.400000  0.300000  0.000000    0.00100000  26 t-inv F
 -0.300000  0.300000 -0.000000    0.00100000  27 t-inv F
  0.400000  0.400000  0.000000    0.00100000  28 t-inv F
  0.500000  0.400000  0.000000    0.00100000  29 t-inv F
 -0.400000  0.400000 -0.000000    0.00100000  30 t-inv F
  0.500000  0.500000  0.000000    0.00100000  31 t-inv F
  0.300000  0.200000  0.100000    0.00100000  32 t-inv F
  0.400000  0.200000  0.100000    0.00100000  33 t-inv F
  0.500000  0.200000  0.100000    0.00100000  34 t-inv F
 -0.400000  0.200000  0.100000    0.00100000  35 t-inv F
  0.400000  0.300000  0.100000    0.00100000  36 t-inv F
  0.500000  0.300000  0.100000    0.00100000  37 t-inv F
 -0.400000  0.300000  0.100000    0.00100000  38 t-inv F
 -0.300000  0.300000  0.100000    0.00100000  39 t-inv F
 -0.200000  0.300000  0.100000    0.00100000  40 t-inv F
  0.500000  0.400000  0.100000    0.00100000  41 t-inv F
 -0.400000  0.400000  0.100000    0.00100000  42 t-inv F
 -0.300000  0.400000  0.100000    0.00100000  43 t-inv F
 -0.400000  0.500000  0.100000    0.00100000  44 t-inv F
 -0.400000  0.400000  0.200000    0.00100000  45 t-inv F
 -0.300000  0.400000  0.200000    0.00100000  46 t-inv F
 -0.300000  0.500000  0.200000    0.00100000  47 t-inv F
  0.000000  0.100000  0.000000    0.00100000   2 t-inv F
  0.000000  0.000000  0.100000    0.00100000   2 t-inv F
 -0.100000 -0.100000 -0.100000    0.00100000   2 t-inv F
 -0.100000 -0.000000 -0.000000    0.00100000   2 t-inv F
 -0.000000 -0.100000 -0.000000    0.00100000   2 t-inv F
 -0.000000 -0.000000 -0.100000    0.00100000   2 t-inv F
  0.100000  0.100000  0.100000    0.00100000   2 t-inv F
 -0.000000  0.200000 -0.000000    0.00100000   3 t-inv F
 -0.000000 -0.000000  0.200000    0.00100000   3 t-inv F
 -0.200000 -0.200000 -0.200000    0.00100000   3 t-inv F
 -0.200000  0.000000  0.000000    0.00100000   3 t-inv F
  0.000000 -0.200000  0.000000    0.00100000   3 t-inv F
  0.000000  0.000000 -0.200000    0.00100000   3 t-inv F
  0.200000  0.200000  0.200000    0.00100000   3 t-inv F
  0.000000  0.300000 -0.000000    0.00100000   4 t-inv F
 -0.000000  0.000000  0.300000    0.00100000   4 t-inv F
 -0.300000 -0.300000 -0.300000    0.00100000   4 t-inv F
 -0.300000  0.000000 -0.000000    0.00100000   4 t-inv F
 -0.000000 -0.300000  0.000000    0.00100000   4 t-inv F
  0.000000 -0.000000 -0.300000    0.00100000   4 t-inv F
  0.300000  0.300000  0.300000    0.00100000   4 t-inv F
 -0.000000  0.400000 -0.000000    0.00100000   5 t-inv F
 -0.000000 -0.000000  0.400000    0.00100000   5 t-inv F
 -0.400000 -0.400000 -0.400000    0.00100000   5 t-inv F
 -0.400000  0.000000  0.000000    0.00100000   5 t-inv F
  0.000000 -0.400000  0.000000    0.00100000   5 t-inv F
  0.000000  0.000000 -0.400000    0.00100000   5 t-inv F
  0.400000  0.400000  0.400000    0.00100000   5 t-inv F
  0.000000  0.500000 -0.000000    0.00100000   6 t-inv F
 -0.000000  0.000000  0.500000    0.00100000   6 t-inv F
 -0.500000 -0.500000 -0.500000    0.00100000   6 t-inv F
  0.000000  0.100000  0.100000    0.00100000   7 t-inv F
  0.100000  0.000000  0.100000    0.00100000   7 t-inv F
 -0.100000 -0.100000  0.000000    0.00100000   7 t-inv F
 -0.100000  0.000000 -0.100000    0.00100000   7 t-inv F
  0.000000 -0.100000 -0.100000    0.00100000   7 t-inv F
  0.000000  0.200000  0.100000    0.00100000   8 t-inv F
  0.100000  0.000000  0.200000    0.00100000   8 t-inv F
 -0.100000 -0.100000  0.100000    0.00100000   8 t-inv F
 -0.200000 -0.100000 -0.200000    0.00100000   8 t-inv F
  0.100000  0.200000 -0.000000    0.00100000   8 t-inv F
  0.100000 -0.100000 -0.100000    0.00100000   8 t-inv F
 -0.200000 -0.200000 -0.100000    0.00100000   8 t-inv F
 -0.000000  0.100000  0.200000    0.00100000   8 t-inv F
 -0.100000  0.100000 -0.100000    0.00100000   8 t-inv F
 -0.100000 -0.200000 -0.200000    0.00100000   8 t-inv F
  0.200000 -0.000000  0.100000    0.00100000   8 t-inv F
 -0.200000 -0.100000 -0.000000    0.00100000   8 t-inv F
 -0.000000 -0.200000 -0.100000    0.00100000   8 t-inv F
 -0.100000 -0.000000 -0.200000    0.00100000   8 t-inv F
  0.100000  0.100000 -0.100000    0.00100000   8 t-inv F
  0.200000  0.100000  0.200000    0.00100000   8 t-inv F
 -0.100000 -0.200000  0.000000    0.00100000   8 t-inv F
 -0.100000  0.100000  0.100000    0.00100000   8 t-inv F
  0.200000  0.200000  0.100000    0.00100000   8 t-inv F
  0.000000 -0.100000 -0.200000    0.00100000   8 t-inv F
  0.100000 -0.100000  0.100000    0.00100000   8 t-inv F
  0.100000  0.200000  0.200000    0.00100000   8 t-inv F
 -0.200000  0.000000 -0.100000    0.00100000   8 t-inv F
 -0.000000  0.300000  0.100000    0.00100000   9 t-inv F
  0.100000 -0.000000  0.300000    0.00100000   9 t-inv F
 -0.100000 -0.100000  0.200000    0.00100000   9 t-inv F
 -0.300000 -0.200000 -0.300000    0.00100000   9 t-inv F
  0.100000  0.300000  0.000000    0.00100000   9 t-inv F
  0.200000 -0.100000 -0.100000    0.00100000   9 t-inv F
 -0.300000 -0.300000 -0.200000    0.00100000   9 t-inv F
  0.000000  0.100000  0.300000    0.00100000   9 t-inv F
 -0.100000  0.200000 -0.100000    0.00100000   9 t-inv F
 -0.200000 -0.300000 -0.300000    0.00100000   9 t-inv F
  0.300000  0.000000  0.100000    0.00100000   9 t-inv F
 -0.300000 -0.100000  0.000000    0.00100000   9 t-inv F
  0.000000 -0.300000 -0.100000    0.00100000   9 t-inv F
 -0.100000  0.000000 -0.300000    0.00100000   9 t-inv F
  0.100000  0.100000 -0.200000    0.00100000   9 t-inv F
  0.300000  0.200000  0.300000    0.00100000   9 t-inv F
 -0.100000 -0.300000 -0.000000    0.00100000   9 t-inv F
 -0.200000  0.100000  0.100000    0.00100000   9 t-inv F
  0.300000  0.300000  0.200000    0.00100000   9 t-inv F
 -0.000000 -0.100000 -0.300000    0.00100000   9 t-inv F
  0.100000 -0.200000  0.100000    0.00100000   9 t-inv F
  0.200000  0.300000  0.300000    0.00100000   9 t-inv F
 -0.300000 -0.000000 -0.100000    0.00100000   9 t-inv F
  0.000000  0.400000  0.100000    0.00100000  10 t-inv F
  0.100000  0.000000  0.400000    0.00100000  10 t-inv F
 -0.100000 -0.100000  0.300000    0.00100000  10 t-inv F
 -0.400000 -0.300000 -0.400000    0.00100000  10 t-inv F
  0.100000  0.400000 -0.000000    0.00100000  10 t-inv F
  0.300000 -0.100000 -0.100000    0.00100000  10 t-inv F
 -0.400000 -0.400000 -0.300000    0.00100000  10 t-inv F
 -0.000000  0.100000  0.400000    0.00100000  10 t-inv F
 -0.100000  0.300000 -0.100000    0.00100000  10 t-inv F
 -0.300000 -0.400000 -0.400000    0.00100000  10 t-inv F
  0.400000 -0.000000  0.100000    0.00100000  10 t-inv F
 -0.400000 -0.100000 -0.000000    0.00100000  10 t-inv F
 -0.000000 -0.400000 -0.100000    0.00100000  10 t-inv F
 -0.100000 -0.000000 -0.400000    0.00100000  10 t-inv F
  0.100000  0.100000 -0.300000    0.00100000  10 t-inv F
  0.400000  0.300000  0.400000    0.00100000  10 t-inv F
 -0.100000 -0.400000  0.000000    0.00100000  10 t-inv F
 -0.300000  0.100000  0.100000    0.00100000  10 t-inv F
  0.400000  0.400000  0.300000    0.00100000  10 t-inv F
  0.000000 -0.100000 -0.400000    0.00100000  10 t-inv F
  0.100000 -0.300000  0.100000    0.00100000  10 t-inv F
  0.300000  0.400000  0.400000    0.00100000  10 t-inv F
 -0.400000  0.000000 -0.100000    0.00100000  10 t-inv F
 -0.000000  0.500000  0.100000    0.00100000  11 t-inv F
  0.100000 -0.000000  0.500000    0.00100000  11 t-inv F
 -0.100000 -0.100000  0.400000    0.00100000  11 t-inv F
 -0.500000 -0.400000 -0.500000    0.00100000  11 t-inv F
  0.100000  0.500000  0.000000    0.00100000  11 t-inv F
  0.400000 -0.100000 -0.100000    0.00100000  11 t-inv F
 -0.500000 -0.500000 -0.400000    0.00100000  11 t-inv F
  0.000000  0.100000  0.500000    0.00100000  11 t-inv F
 -0.100000  0.400000 -0.100000    0.00100000  11 t-inv F
 -0.400000 -0.500000 -0.500000    0.00100000  11 t-inv F
  0.500000  0.000000  0.100000    0.00100000  11 t-inv F
 -0.500000 -0.100000  0.000000    0.00100000  11 t-inv F
  0.000000 -0.500000 -0.100000    0.00100000  11 t-inv F
 -0.100000  0.000000 -0.500000    0.00100000  11 t-inv F
  0.100000  0.100000 -0.400000    0.00100000  11 t-inv F
  0.500000  0.400000  0.500000    0.00100000  11 t-inv F
 -0.100000 -0.500000 -0.000000    0.00100000  11 t-inv F
 -0.400000  0.100000  0.100000    0.00100000  11 t-inv F
  0.500000  0.500000  0.400000    0.00100000  11 t-inv F
 -0.000000 -0.100000 -0.500000    0.00100000  11 t-inv F
  0.100000 -0.400000  0.100000    0.00100000  11 t-inv F
  0.400000  0.500000  0.500000    0.00100000  11 t-inv F
 -0.500000 -0.000000 -0.100000    0.00100000  11 t-inv F
 -0.000000 -0.400000  0.100000    0.00100000  12 t-inv F
  0.100000 -0.000000 -0.400000    0.00100000  12 t-inv F
 -0.100000 -0.100000 -0.500000    0.00100000  12 t-inv F
  0.400000  0.500000  0.400000    0.00100000  12 t-inv F
  0.100000 -0.400000  0.000000    0.00100000  12 t-inv F
 -0.500000 -0.100000 -0.100000    0.00100000  12 t-inv F
  0.400000  0.400000  0.500000    0.00100000  12 t-inv F
  0.000000  0.100000 -0.400000    0.00100000  12 t-inv F
 -0.100000 -0.500000 -0.100000    0.00100000  12 t-inv F
  0.500000  0.400000  0.400000    0.00100000  12 t-inv F
 -0.400000  0.000000  0.100000    0.00100000  12 t-inv F
  0.400000 -0.100000  0.000000    0.00100000  12 t-inv F
  0.000000  0.400000 -0.100000    0.00100000  12 t-inv F
 -0.100000  0.000000  0.400000    0.00100000  12 t-inv F
  0.100000  0.100000  0.500000    0.00100000  12 t-inv F
 -0.400000 -0.500000 -0.400000    0.00100000  12 t-inv F
 -0.100000  0.400000 -0.000000    0.00100000  12 t-inv F
  0.500000  0.100000  0.100000    0.00100000  12 t-inv F
 -0.400000 -0.400000 -0.500000    0.00100000  12 t-inv F
 -0.000000 -0.100000  0.400000    0.00100000  12 t-inv F
  0.100000  0.500000  0.100000    0.00100000  12 t-inv F
 -0.500000 -0.400000 -0.400000    0.00100000  12 t-inv F
  0.400000 -0.000000 -0.100000    0.00100000  12 t-inv F
  0.000000 -0.300000  0.100000    0.00100000  13 t-inv F
  0.100000  0.000000 -0.300000    0.00100000  13 t-inv F
 -0.100000 -0.100000 -0.400000    0.00100000  13 t-inv F
  0.300000  0.400000  0.300000    0.00100000  13 t-inv F
  0.100000 -0.300000 -0.000000    0.00100000  13 t-inv F
 -0.400000 -0.100000 -0.100000    0.00100000  13 t-inv F
  0.300000  0.300000  0.400000    0.00100000  13 t-inv F
 -0.000000  0.100000 -0.300000    0.00100000  13 t-inv F
 -0.100000 -0.400000 -0.100000    0.00100000  13 t-inv F
  0.400000  0.300000  0.300000    0.00100000  13 t-inv F
 -0.300000 -0.000000  0.100000    0.00100000  13 t-inv F
  0.300000 -0.100000 -0.000000    0.00100000  13 t-inv F
 -0.000000  0.300000 -0.100000    0.00100000  13 t-inv F
 -0.100000 -0.000000  0.300000    0.00100000  13 t-inv F
  0.100000  0.100000  0.400000    0.00100000  13 t-inv F
 -0.300000 -0.400000 -0.300000    0.00100000  13 t-inv F
 -0.100000  0.300000  0.000000    0.00100000  13 t-inv F
  0.400000  0.100000  0.100000    0.00100000  13 t-inv F
 -0.300000 -0.300000 -0.400000    0.00100000  13 t-inv F
  0.000000 -0.100000  0.300000    0.00100000  13 t-inv F
  0.100000  0.400000  0.100000    0.00100000  13 t-inv F
 -0.400000 -0.300000 -0.300000    0.00100000  13 t-inv F
  0.300000  0.000000 -0.100000    0.00100000  13 t-inv F
 -0.000000 -0.200000  0.100000    0.00100000  14 t-inv F
  0.100000 -0.000000 -0.200000    0.00100000  14 t-inv F
 -0.100000 -0.100000 -0.300000    0.00100000  14 t-inv F
  0.200000  0.300000  0.200000    0.00100000  14 t-inv F
  0.100000 -0.200000  0.000000    0.00100000  14 t-inv F
 -0.300000 -0.100000 -0.100000    0.00100000  14 t-inv F
  0.200000  0.200000  0.300000    0.00100000  14 t-inv F
  0.000000  0.100000 -0.200000    0.00100000  14 t-inv F
 -0.100000 -0.300000 -0.100000    0.00100000  14 t-inv F
  0.300000  0.200000  0.200000    0.00100000  14 t-inv F
 -0.200000  0.000000  0.100000    0.00100000  14 t-inv F
  0.200000 -0.100000  0.000000    0.00100000  14 t-inv F
  0.000000  0.200000 -0.100000    0.00100000  14 t-inv F
 -0.100000  0.000000  0.200000    0.00100000  14 t-inv F
  0.100000  0.100000  0.300000    0.00100000  14 t-inv F
 -0.200000 -0.300000 -0.200000    0.00100000  14 t-inv F
 -0.100000  0.200000 -0.000000    0.00100000  14 t-inv F
  0.300000  0.100000  0.100000    0.00100000  14 t-inv F
 -0.200000 -0.200000 -0.300000    0.00100000  14 t-inv F
 -0.000000 -0.100000  0.200000    0.00100000  14 t-inv F
  0.100000  0.300000  0.100000    0.00100000  14 t-inv F
 -0.300000 -0.200000 -0.200000    0.00100000  14 t-inv F
  0.200000 -0.000000 -0.100000    0.00100000  14 t-inv F
  0.000000 -0.100000  0.100000    0.00100000  15 t-inv F
  0.100000  0.000000 -0.100000    0.00100000  15 t-inv F
 -0.100000 -0.100000 -0.200000    0.00100000  15 t-inv F
  0.100000  0.200000  0.100000    0.00100000  15 t-inv F
  0.100000 -0.100000 -0.000000    0.00100000  15 t-inv F
 -0.200000 -0.100000 -0.100000    0.00100000  15 t-inv F
  0.100000  0.100000  0.200000    0.00100000  15 t-inv F
 -0.000000  0.100000 -0.100000    0.00100000  15 t-inv F
 -0.100000 -0.200000 -0.100000    0.00100000  15 t-inv F
  0.200000  0.100000  0.100000    0.00100000  15 t-inv F
 -0.100000 -0.000000  0.100000    0.00100000  15 t-inv F
  0.000000  0.200000  0.200000    0.00100000  16 t-inv F
  0.200000  0.000000  0.200000    0.00100000  16 t-inv F
 -0.200000 -0.200000  0.000000    0.00100000  16 t-inv F
 -0.200000  0.000000 -0.200000    0.00100000  16 t-inv F
  0.000000 -0.200000 -0.200000    0.00100000  16 t-inv F
  0.000000  0.300000  0.200000    0.00100000  17 t-inv F
  0.200000  0.000000  0.300000    0.00100000  17 t-inv F
 -0.200000 -0.200000  0.100000    0.00100000  17 t-inv F
 -0.300000 -0.100000 -0.300000    0.00100000  17 t-inv F
  0.200000  0.300000 -0.000000    0.00100000  17 t-inv F
  0.100000 -0.200000 -0.200000    0.00100000  17 t-inv F
 -0.300000 -0.300000 -0.100000    0.00100000  17 t-inv F
 -0.000000  0.200000  0.300000    0.00100000  17 t-inv F
 -0.200000  0.100000 -0.200000    0.00100000  17 t-inv F
 -0.100000 -0.300000 -0.300000    0.00100000  17 t-inv F
  0.300000 -0.000000  0.200000    0.00100000  17 t-inv F
 -0.300000 -0.200000 -0.000000    0.00100000  17 t-inv F
 -0.000000 -0.300000 -0.200000    0.00100000  17 t-inv F
 -0.200000 -0.000000 -0.300000    0.00100000  17 t-inv F
  0.200000  0.200000 -0.100000    0.00100000  17 t-inv F
  0.300000  0.100000  0.300000    0.00100000  17 t-inv F
 -0.200000 -0.300000  0.000000    0.00100000  17 t-inv F
 -0.100000  0.200000  0.200000    0.00100000  17 t-inv F
  0.300000  0.300000  0.100000    0.00100000  17 t-inv F
  0.000000 -0.200000 -0.300000    0.00100000  17 t-inv F
  0.200000 -0.100000  0.200000    0.00100000  17 t-inv F
  0.100000  0.300000  0.300000    0.00100000  17 t-inv F
 -0.300000  0.000000 -0.200000    0.00100000  17 t-inv F
 -0.000000  0.400000  0.200000    0.00100000  18 t-inv F
  0.200000 -0.000000  0.400000    0.00100000  18 t-inv F
 -0.200000 -0.200000  0.200000    0.00100000  18 t-inv F
 -0.400000 -0.200000 -0.400000    0.00100000  18 t-inv F
  0.200000  0.400000  0.000000    0.00100000  18 t-inv F
  0.200000 -0.200000 -0.200000    0.00100000  18 t-inv F
 -0.400000 -0.400000 -0.200000    0.00100000  18 t-inv F
  0.000000  0.200000  0.400000    0.00100000  18 t-inv F
 -0.200000  0.200000 -0.200000    0.00100000  18 t-inv F
 -0.200000 -0.400000 -0.400000    0.00100000  18 t-inv F
  0.400000  0.000000  0.200000    0.00100000  18 t-inv F
 -0.400000 -0.200000  0.000000    0.00100000  18 t-inv F
  0.000000 -0.400000 -0.200000    0.00100000  18 t-inv F
 -0.200000  0.000000 -0.400000    0.00100000  18 t-inv F
  0.200000  0.200000 -0.200000    0.00100000  18 t-inv F
  0.400000  0.200000  0.400000    0.00100000  18 t-inv F
 -0.200000 -0.400000 -0.000000    0.00100000  18 t-inv F
 -0.200000  0.200000  0.200000    0.00100000  18 t-inv F
  0.400000  0.400000  0.200000    0.00100000  18 t-inv F
 -0.000000 -0.200000 -0.400000    0.00100000  18 t-inv F
  0.200000 -0.200000  0.200000    0.00100000  18 t-inv F
  0.200000  0.400000  0.400000    0.00100000  18 t-inv F
 -0.400000 -0.000000 -0.200000    0.00100000  18 t-inv F
  0.000000  0.500000  0.200000    0.00100000  19 t-inv F
  0.200000  0.000000  0.500000    0.00100000  19 t-inv F
 -0.200000 -0.200000  0.300000    0.00100000  19 t-inv F
 -0.500000 -0.300000 -0.500000    0.00100000  19 t-inv F
  0.200000  0.500000 -0.000000    0.00100000  19 t-inv F
  0.300000 -0.200000 -0.200000    0.00100000  19 t-inv F
 -0.500000 -0.500000 -0.300000    0.00100000  19 t-inv F
 -0.000000  0.200000  0.500000    0.00100000  19 t-inv F
 -0.200000  0.300000 -0.200000    0.00100000  19 t-inv F
 -0.300000 -0.500000 -0.500000    0.00100000  19 t-inv F
  0.500000 -0.000000  0.200000    0.00100000  19 t-inv F
 -0.500000 -0.200000 -0.000000    0.00100000  19 t-inv F
 -0.000000 -0.500000 -0.200000    0.00100000  19 t-inv F
 -0.200000 -0.000000 -0.500000    0.00100000  19 t-inv F
  0.200000  0.200000 -0.300000    0.00100000  19 t-inv F
  0.500000  0.300000  0.500000    0.00100000  19 t-inv F
 -0.200000 -0.500000  0.000000    0.00100000  19 t-inv F
 -0.300000  0.200000  0.200000    0.00100000  19 t-inv F
  0.500000  0.500000  0.300000    0.00100000  19 t-inv F
  0.000000 -0.200000 -0.500000    0.00100000  19 t-inv F
  0.200000 -0.300000  0.200000    0.00100000  19 t-inv F
  0.300000  0.500000  0.500000    0.00100000  19 t-inv F
 -0.500000  0.000000 -0.200000    0.00100000  19 t-inv F
 -0.000000 -0.400000  0.200000    0.00100000  20 t-inv F
  0.200000 -0.000000 -0.400000    0.00100000  20 t-inv F
 -0.200000 -0.200000 -0.600000    0.00100000  20 t-inv F
  0.400000  0.600000  0.400000    0.00100000  20 t-inv F
  0.200000 -0.400000  0.000000    0.00100000  20 t-inv F
 -0.600000 -0.200000 -0.200000    0.00100000  20 t-inv F
  0.400000  0.400000  0.600000    0.00100000  20 t-inv F
  0.000000  0.200000 -0.400000    0.00100000  20 t-inv F
 -0.200000 -0.600000 -0.200000    0.00100000  20 t-inv F
  0.600000  0.400000  0.400000    0.00100000  20 t-inv F
 -0.400000  0.000000  0.200000    0.00100000  20 t-inv F
  0.400000 -0.200000  0.000000    0.00100000  20 t-inv F
  0.000000  0.400000 -0.200000    0.00100000  20 t-inv F
 -0.200000  0.000000  0.400000    0.00100000  20 t-inv F
  0.200000  0.200000  0.600000    0.00100000  20 t-inv F
 -0.400000 -0.600000 -0.400000    0.00100000  20 t-inv F
 -0.200000  0.400000 -0.000000    0.00100000  20 t-inv F
  0.600000  0.200000  0.200000    0.00100000  20 t-inv F
 -0.400000 -0.400000 -0.600000    0.00100000  20 t-inv F
 -0.000000 -0.200000  0.400000    0.00100000  20 t-inv F
  0.200000  0.600000  0.200000    0.00100000  20 t-inv F
 -0.600000 -0.400000 -0.400000    0.00100000  20 t-inv F
  0.400000 -0.000000 -0.200000    0.00100000  20 t-inv F
 -0.000000 -0.300000  0.200000    0.00100000  21 t-inv F
  0.200000 -0.000000 -0.300000    0.00100000  21 t-inv F
 -0.200000 -0.200000 -0.500000    0.00100000  21 t-inv F
  0.300000  0.500000  0.300000    0.00100000  21 t-inv F
  0.200000 -0.300000  0.000000    0.00100000  21 t-inv F
 -0.500000 -0.200000 -0.200000    0.00100000  21 t-inv F
  0.300000  0.300000  0.500000    0.00100000  21 t-inv F
  0.000000  0.200000 -0.300000    0.00100000  21 t-inv F
 -0.200000 -0.500000 -0.200000    0.00100000  21 t-inv F
  0.500000  0.300000  0.300000    0.00100000  21 t-inv F
 -0.300000  0.000000  0.200000    0.00100000  21 t-inv F
  0.300000 -0.200000  0.000000    0.00100000  21 t-inv F
  0.000000  0.300000 -0.200000    0.00100000  21 t-inv F
 -0.200000  0.000000  0.300000    0.00100000  21 t-inv F
  0.200000  0.200000  0.500000    0.00100000  21 t-inv F
 -0.300000 -0.500000 -0.300000    0.00100000  21 t-inv F
 -0.200000  0.300000 -0.000000    0.00100000  21 t-inv F
  0.500000  0.200000  0.200000    0.00100000  21 t-inv F
 -0.300000 -0.300000 -0.500000    0.00100000  21 t-inv F
 -0.000000 -0.200000  0.300000    0.00100000  21 t-inv F
  0.200000  0.500000  0.200000    0.00100000  21 t-inv F
 -0.500000 -0.300000 -0.300000    0.00100000  21 t-inv F
  0.300000 -0.000000 -0.200000    0.00100000  21 t-inv F
  0.000000 -0.200000  0.200000    0.00100000  22 t-inv F
  0.200000  0.000000 -0.200000    0.00100000  22 t-inv F
 -0.200000 -0.200000 -0.400000    0.00100000  22 t-inv F
  0.200000  0.400000  0.200000    0.00100000  22 t-inv F
  0.200000 -0.200000 -0.000000    0.00100000  22 t-inv F
 -0.400000 -0.200000 -0.200000    0.00100000  22 t-inv F
  0.200000  0.200000  0.400000    0.00100000  22 t-inv F
 -0.000000  0.200000 -0.200000    0.00100000  22 t-inv F
 -0.200000 -0.400000 -0.200000    0.00100000  22 t-inv F
  0.400000  0.200000  0.200000    0.00100000  22 t-inv F
 -0.200000 -0.000000  0.200000    0.00100000  22 t-inv F
  0.000000  0.300000  0.300000    0.00100000  23 t-inv F
  0.300000  0.000000  0.300000    0.00100000  23 t-inv F
 -0.300000 -0.300000  0.000000    0.00100000  23 t-inv F
 -0.300000 -0.000000 -0.300000    0.00100000  23 t-inv F
  0.000000 -0.300000 -0.300000    0.00100000  23 t-inv F
  0.000000  0.400000  0.300000    0.00100000  24 t-inv F
  0.300000  0.000000  0.400000    0.00100000  24 t-inv F
 -0.300000 -0.300000  0.100000    0.00100000  24 t-inv F
 -0.400000 -0.100000 -0.400000    0.00100000  24 t-inv F
  0.300000  0.400000 -0.000000    0.00100000  24 t-inv F
  0.100000 -0.300000 -0.300000    0.00100000  24 t-inv F
 -0.400000 -0.400000 -0.100000    0.00100000  24 t-inv F
 -0.000000  0.300000  0.400000    0.00100000  24 t-inv F
 -0.300000  0.100000 -0.300000    0.00100000  24 t-inv F
 -0.100000 -0.400000 -0.400000    0.00100000  24 t-inv F
  0.400000 -0.000000  0.300000    0.00100000  24 t-inv F
 -0.400000 -0.300000 -0.000000    0.00100000  24 t-inv F
 -0.000000 -0.400000 -0.300000    0.00100000  24 t-inv F
 -0.300000 -0.000000 -0.400000    0.00100000  24 t-inv F
  0.300000  0.300000 -0.100000    0.00100000  24 t-inv F
  0.400000  0.100000  0.400000    0.00100000  24 t-inv F
 -0.300000 -0.400000  0.000000    0.00100000  24 t-inv F
 -0.100000  0.300000  0.300000    0.00100000  24 t-inv F
  0.400000  0.400000  0.100000    0.00100000  24 t-inv F
  0.000000 -0.300000 -0.400000    0.00100000  24 t-inv F
  0.300000 -0.100000  0.300000    0.00100000  24 t-inv F
  0.100000  0.400000  0.400000    0.00100000  24 t-inv F
 -0.400000  0.000000 -0.300000    0.00100000  24 t-inv F
 -0.000000  0.500000  0.300000    0.00100000  25 t-inv F
  0.300000 -0.000000  0.500000    0.00100000  25 t-inv F
 -0.300000 -0.300000  0.200000    0.00100000  25 t-inv F
 -0.500000 -0.200000 -0.500000    0.00100000  25 t-inv F
  0.300000  0.500000  0.000000    0.00100000  25 t-inv F
  0.200000 -0.300000 -0.300000    0.00100000  25 t-inv F
 -0.500000 -0.500000 -0.200000    0.00100000  25 t-inv F
  0.000000  0.300000  0.500000    0.00100000  25 t-inv F
 -0.300000  0.200000 -0.300000    0.00100000  25 t-inv F
 -0.200000 -0.500000 -0.500000    0.00100000  25 t-inv F
  0.500000  0.000000  0.300000    0.00100000  25 t-inv F
 -0.500000 -0.300000  0.000000    0.00100000  25 t-inv F
  0.000000 -0.500000 -0.300000    0.00100000  25 t-inv F
 -0.300000  0.000000 -0.500000    0.00100000  25 t-inv F
  0.300000  0.300000 -0.200000    0.00100000  25 t-inv F
  0.500000  0.200000  0.500000    0.00100000  25 t-inv F
 -0.300000 -0.500000 -0.000000    0.00100000  25 t-inv F
 -0.200000  0.300000  0.300000    0.00100000  25 t-inv F
  0.500000  0.500000  0.200000    0.00100000  25 t-inv F
 -0.000000 -0.300000 -0.500000    0.00100000  25 t-inv F
  0.300000 -0.200000  0.300000    0.00100000  25 t-inv F
  0.200000  0.500000  0.500000    0.00100000  25 t-inv F
 -0.500000 -0.000000 -0.300000    0.00100000  25 t-inv F
  0.000000 -0.400000  0.300000    0.00100000  26 t-inv F
  0.300000  0.000000 -0.400000    0.00100000  26 t-inv F
 -0.300000 -0.300000 -0.700000    0.00100000  26 t-inv F
  0.400000  0.700000  0.400000    0.00100000  26 t-inv F
  0.300000 -0.400000 -0.000000    0.00100000  26 t-inv F
 -0.700000 -0.300000 -0.300000    0.00100000  26 t-inv F
  0.400000  0.400000  0.700000    0.00100000  26 t-inv F
 -0.000000  0.300000 -0.400000    0.00100000  26 t-inv F
 -0.300000 -0.700000 -0.300000    0.00100000  26 t-inv F
  0.700000  0.400000  0.400000    0.00100000  26 t-inv F
 -0.400000 -0.000000  0.300000    0.00100000  26 t-inv F
  0.400000 -0.300000 -0.000000    0.00100000  26 t-inv F
 -0.000000  0.400000 -0.300000    0.00100000  26 t-inv F
 -0.300000 -0.000000  0.400000    0.00100000  26 t-inv F
  0.300000  0.300000  0.700000    0.00100000  26 t-inv F
 -0.400000 -0.700000 -0.400000    0.00100000  26 t-inv F
 -0.300000  0.400000  0.000000    0.00100000  26 t-inv F
  0.700000  0.300000  0.300000    0.00100000  26 t-inv F
 -0.400000 -0.400000 -0.700000    0.00100000  26 t-inv F
  0.000000 -0.300000  0.400000    0.00100000  26 t-inv F
  0.300000  0.700000  0.300000    0.00100000  26 t-inv F
 -0.700000 -0.400000 -0.400000    0.00100000  26 t-inv F
  0.400000  0.000000 -0.300000    0.00100000  26 t-inv F
 -0.000000 -0.300000  0.300000    0.00100000  27 t-inv F
  0.300000 -0.000000 -0.300000    0.00100000  27 t-inv F
 -0.300000 -0.300000 -0.600000    0.00100000  27 t-inv F
  0.300000  0.600000  0.300000    0.00100000  27 t-inv F
  0.300000 -0.300000  0.000000    0.00100000  27 t-inv F
 -0.600000 -0.300000 -0.300000    0.00100000  27 t-inv F
  0.300000  0.300000  0.600000    0.00100000  27 t-inv F
  0.000000  0.300000 -0.300000    0.00100000  27 t-inv F
 -0.300000 -0.600000 -0.300000    0.00100000  27 t-inv F
  0.600000  0.300000  0.300000    0.00100000  27 t-inv F
 -0.300000  0.000000  0.300000    0.00100000  27 t-inv F
  0.000000  0.400000  0.400000    0.00100000  28 t-inv F
  0.400000  0.000000  0.400000    0.00100000  28 t-inv F
 -0.400000 -0.400000  0.000000    0.00100000  28 t-inv F
 -0.400000  0.000000 -0.400000    0.00100000  28 t-inv F
  0.000000 -0.400000 -0.400000    0.00100000  28 t-inv F
  0.000000  0.500000  0.400000    0.00100000  29 t-inv F
  0.400000  0.000000  0.500000    0.00100000  29 t-inv F
 -0.400000 -0.400000  0.100000    0.00100000  29 t-inv F
 -0.500000 -0.100000 -0.500000    0.00100000  29 t-inv F
  0.400000  0.500000 -0.000000    0.00100000  29 t-inv F
  0.100000 -0.400000 -0.400000    0.00100000  29 t-inv F
 -0.500000 -0.500000 -0.100000    0.00100000  29 t-inv F
 -0.000000  0.400000  0.500000    0.00100000  29 t-inv F
 -0.400000  0.100000 -0.400000    0.00100000  29 t-inv F
 -0.100000 -0.500000 -0.500000    0.00100000  29 t-inv F
  0.500000 -0.000000  0.400000    0.00100000  29 t-inv F
 -0.500000 -0.400000 -0.000000    0.00100000  29 t-inv F
 -0.000000 -0.500000 -0.400000    0.00100000  29 t-inv F
 -0.400000 -0.000000 -0.500000    0.00100000  29 t-inv F
  0.400000  0.400000 -0.100000    0.00100000  29 t-inv F
  0.500000  0.100000  0.500000    0.00100000  29 t-inv F
 -0.400000 -0.500000  0.000000    0.00100000  29 t-inv F
 -0.100000  0.400000  0.400000    0.00100000  29 t-inv F
  0.500000  0.500000  0.100000    0.00100000  29 t-inv F
  0.000000 -0.400000 -0.500000    0.00100000  29 t-inv F
  0.400000 -0.100000  0.400000    0.00100000  29 t-inv F
  0.100000  0.500000  0.500000    0.00100000  29 t-inv F
 -0.500000  0.000000 -0.400000    0.00100000  29 t-inv F
 -0.000000 -0.400000  0.400000    0.00100000  30 t-inv F
  0.400000 -0.000000 -0.400000    0.00100000  30 t-inv F
 -0.400000 -0.400000 -0.800000    0.00100000  30 t-inv F
  0.400000  0.800000  0.400000    0.00100000  30 t-inv F
  0.400000 -0.400000  0.000000    0.00100000  30 t-inv F
 -0.800000 -0.400000 -0.400000    0.00100000  30 t-inv F
  0.400000  0.400000  0.800000    0.00100000  30 t-inv F
  0.000000  0.400000 -0.400000    0.00100000  30 t-inv F
 -0.400000 -0.800000 -0.400000    0.00100000  30 t-inv F
  0.800000  0.400000  0.400000    0.00100000  30 t-inv F
 -0.400000  0.000000  0.400000    0.00100000  30 t-inv F
  0.000000  0.500000  0.500000    0.00100000  31 t-inv F
  0.500000  0.000000  0.500000    0.00100000  31 t-inv F
  0.100000  0.300000  0.200000    0.00100000  32 t-inv F
  0.200000  0.100000  0.300000    0.00100000  32 t-inv F
 -0.200000 -0.100000  0.100000    0.00100000  32 t-inv F
 -0.300000 -0.100000 -0.200000    0.00100000  32 t-inv F
 -0.100000  0.200000  0.100000    0.00100000  32 t-inv F
  0.100000  0.200000 -0.100000    0.00100000  32 t-inv F
  0.100000 -0.100000 -0.200000    0.00100000  32 t-inv F
 -0.200000 -0.100000 -0.300000    0.00100000  32 t-inv F
 -0.200000 -0.300000 -0.100000    0.00100000  32 t-inv F
  0.100000 -0.100000  0.200000    0.00100000  32 t-inv F
  0.100000 -0.200000 -0.100000    0.00100000  32 t-inv F
 -0.100000  0.100000  0.200000    0.00100000  32 t-inv F
 -0.200000  0.100000 -0.100000    0.00100000  32 t-inv F
 -0.300000 -0.200000 -0.100000    0.00100000  32 t-inv F
 -0.100000 -0.200000 -0.300000    0.00100000  32 t-inv F
  0.200000  0.100000 -0.100000    0.00100000  32 t-inv F
 -0.100000  0.100000 -0.200000    0.00100000  32 t-inv F
  0.200000 -0.100000  0.100000    0.00100000  32 t-inv F
 -0.100000 -0.200000  0.100000    0.00100000  32 t-inv F
 -0.100000 -0.300000 -0.200000    0.00100000  32 t-inv F
  0.300000  0.100000  0.200000    0.00100000  32 t-inv F
  0.200000  0.300000  0.100000    0.00100000  32 t-inv F
  0.100000  0.200000  0.300000    0.00100000  32 t-inv F
  0.100000  0.400000  0.200000    0.00100000  33 t-inv F
  0.200000  0.100000  0.400000    0.00100000  33 t-inv F
 -0.200000 -0.100000  0.200000    0.00100000  33 t-inv F
 -0.400000 -0.200000 -0.300000    0.00100000  33 t-inv F
 -0.100000  0.300000  0.100000    0.00100000  33 t-inv F
  0.100000  0.300000 -0.100000    0.00100000  33 t-inv F
  0.200000 -0.100000 -0.200000    0.00100000  33 t-inv F
 -0.300000 -0.200000 -0.400000    0.00100000  33 t-inv F
 -0.300000 -0.400000 -0.200000    0.00100000  33 t-inv F
  0.100000 -0.100000  0.300000    0.00100000  33 t-inv F
  0.200000 -0.200000 -0.100000    0.00100000  33 t-inv F
 -0.100000  0.100000  0.300000    0.00100000  33 t-inv F
 -0.200000  0.200000 -0.100000    0.00100000  33 t-inv F
 -0.400000 -0.300000 -0.200000    0.00100000  33 t-inv F
 -0.200000 -0.300000 -0.400000    0.00100000  33 t-inv F
  0.300000  0.100000 -0.100000    0.00100000  33 t-inv F
 -0.100000  0.200000 -0.200000    0.00100000  33 t-inv F
  0.300000 -0.100000  0.100000    0.00100000  33 t-inv F
 -0.100000 -0.200000  0.200000    0.00100000  33 t-inv F
 -0.200000 -0.400000 -0.300000    0.00100000  33 t-inv F
  0.400000  0.100000  0.200000    0.00100000  33 t-inv F
  0.200000  0.400000  0.100000    0.00100000  33 t-inv F
  0.100000  0.200000  0.400000    0.00100000  33 t-inv F
 -0.400000 -0.200000 -0.100000    0.00100000  33 t-inv F
 -0.100000 -0.400000 -0.200000    0.00100000  33 t-inv F
 -0.200000 -0.100000 -0.400000    0.00100000  33 t-inv F
  0.200000  0.100000 -0.200000    0.00100000  33 t-inv F
  0.400000  0.200000  0.300000    0.00100000  33 t-inv F
  0.100000 -0.300000 -0.100000    0.00100000  33 t-inv F
 -0.100000 -0.300000  0.100000    0.00100000  33 t-inv F
 -0.200000  0.100000  0.200000    0.00100000  33 t-inv F
  0.300000  0.200000  0.400000    0.00100000  33 t-inv F
  0.300000  0.400000  0.200000    0.00100000  33 t-inv F
 -0.100000  0.100000 -0.300000    0.00100000  33 t-inv F
 -0.200000  0.200000  0.100000    0.00100000  33 t-inv F
  0.100000 -0.100000 -0.300000    0.00100000  33 t-inv F
  0.200000 -0.200000  0.100000    0.00100000  33 t-inv F
  0.400000  0.300000  0.200000    0.00100000  33 t-inv F
  0.200000  0.300000  0.400000    0.00100000  33 t-inv F
 -0.300000 -0.100000  0.100000    0.00100000  33 t-inv F
  0.100000 -0.200000  0.200000    0.00100000  33 t-inv F
 -0.300000  0.100000 -0.100000    0.00100000  33 t-inv F
  0.100000  0.200000 -0.200000    0.00100000  33 t-inv F
  0.200000  0.400000  0.300000    0.00100000  33 t-inv F
 -0.400000 -0.100000 -0.200000    0.00100000  33 t-inv F
 -0.200000 -0.400000 -0.100000    0.00100000  33 t-inv F
 -0.100000 -0.200000 -0.400000    0.00100000  33 t-inv F
  0.100000  0.500000  0.200000    0.00100000  34 t-inv F
  0.200000  0.100000  0.500000    0.00100000  34 t-inv F
 -0.200000 -0.100000  0.300000    0.00100000  34 t-inv F
 -0.500000 -0.300000 -0.400000    0.00100000  34 t-inv F
 -0.100000  0.400000  0.100000    0.00100000  34 t-inv F
  0.100000  0.400000 -0.100000    0.00100000  34 t-inv F
  0.300000 -0.100000 -0.200000    0.00100000  34 t-inv F
 -0.400000 -0.300000 -0.500000    0.00100000  34 t-inv F
 -0.400000 -0.500000 -0.300000    0.00100000  34 t-inv F
  0.100000 -0.100000  0.400000    0.00100000  34 t-inv F
  0.300000 -0.200000 -0.100000    0.00100000  34 t-inv F
 -0.100000  0.100000  0.400000    0.00100000  34 t-inv F
 -0.200000  0.300000 -0.100000    0.00100000  34 t-inv F
 -0.500000 -0.400000 -0.300000    0.00100000  34 t-inv F
 -0.300000 -0.400000 -0.500000    0.00100000  34 t-inv F
  0.400000  0.100000 -0.100000    0.00100000  34 t-inv F
 -0.100000  0.300000 -0.200000    0.00100000  34 t-inv F
  0.400000 -0.100000  0.100000    0.00100000  34 t-inv F
 -0.100000 -0.200000  0.300000    0.00100000  34 t-inv F
 -0.300000 -0.500000 -0.400000    0.00100000  34 t-inv F
  0.500000  0.100000  0.200000    0.00100000  34 t-inv F
  0.200000  0.500000  0.100000    0.00100000  34 t-inv F
  0.100000  0.200000  0.500000    0.00100000  34 t-inv F
 -0.500000 -0.200000 -0.100000    0.00100000  34 t-inv F
 -0.100000 -0.500000 -0.200000    0.00100000  34 t-inv F
 -0.200000 -0.100000 -0.500000    0.00100000  34 t-inv F
  0.200000  0.100000 -0.300000    0.00100000  34 t-inv F
  0.500000  0.300000  0.400000    0.00100000  34 t-inv F
  0.100000 -0.400000 -0.100000    0.00100000  34 t-inv F
 -0.100000 -0.400000  0.100000    0.00100000  34 t-inv F
 -0.300000  0.100000  0.200000    0.00100000  34 t-inv F
  0.400000  0.300000  0.500000    0.00100000  34 t-inv F
  0.400000  0.500000  0.300000    0.00100000  34 t-inv F
 -0.100000  0.100000 -0.400000    0.00100000  34 t-inv F
 -0.300000  0.200000  0.100000    0.00100000  34 t-inv F
  0.100000 -0.100000 -0.400000    0.00100000  34 t-inv F
  0.200000 -0.300000  0.100000    0.00100000  34 t-inv F
  0.500000  0.400000  0.300000    0.00100000  34 t-inv F
  0.300000  0.400000  0.500000    0.00100000  34 t-inv F
 -0.400000 -0.100000  0.100000    0.00100000  34 t-inv F
  0.100000 -0.300000  0.200000    0.00100000  34 t-inv F
 -0.400000  0.100000 -0.100000    0.00100000  34 t-inv F
  0.100000  0.200000 -0.300000    0.00100000  34 t-inv F
  0.300000  0.500000  0.400000    0.00100000  34 t-inv F
 -0.500000 -0.100000 -0.200000    0.00100000  34 t-inv F
 -0.200000 -0.500000 -0.100000    0.00100000  34 t-inv F
 -0.100000 -0.200000 -0.500000    0.00100000  34 t-inv F
  0.100000 -0.400000  0.200000    0.00100000  35 t-inv F
  0.200000  0.100000 -0.400000    0.00100000  35 t-inv F
 -0.200000 -0.100000 -0.600000    0.00100000  35 t-inv F
  0.400000  0.600000  0.500000    0.00100000  35 t-inv F
 -0.100000 -0.500000  0.100000    0.00100000  35 t-inv F
  0.100000 -0.500000 -0.100000    0.00100000  35 t-inv F
 -0.600000 -0.100000 -0.200000    0.00100000  35 t-inv F
  0.500000  0.600000  0.400000    0.00100000  35 t-inv F
  0.500000  0.400000  0.600000    0.00100000  35 t-inv F
  0.100000 -0.100000 -0.500000    0.00100000  35 t-inv F
 -0.600000 -0.200000 -0.100000    0.00100000  35 t-inv F
 -0.100000  0.100000 -0.500000    0.00100000  35 t-inv F
 -0.200000 -0.600000 -0.100000    0.00100000  35 t-inv F
  0.400000  0.500000  0.600000    0.00100000  35 t-inv F
  0.600000  0.500000  0.400000    0.00100000  35 t-inv F
 -0.500000  0.100000 -0.100000    0.00100000  35 t-inv F
 -0.100000 -0.600000 -0.200000    0.00100000  35 t-inv F
 -0.500000 -0.100000  0.100000    0.00100000  35 t-inv F
 -0.100000 -0.200000 -0.600000    0.00100000  35 t-inv F
  0.600000  0.400000  0.500000    0.00100000  35 t-inv F
 -0.400000  0.100000  0.200000    0.00100000  35 t-inv F
  0.200000 -0.400000  0.100000    0.00100000  35 t-inv F
  0.100000  0.200000 -0.400000    0.00100000  35 t-inv F
  0.100000  0.400000  0.300000    0.00100000  36 t-inv F
  0.300000  0.100000  0.400000    0.00100000  36 t-inv F
 -0.300000 -0.200000  0.100000    0.00100000  36 t-inv F
 -0.400000 -0.100000 -0.300000    0.00100000  36 t-inv F
 -0.100000  0.300000  0.200000    0.00100000  36 t-inv F
  0.200000  0.300000 -0.100000    0.00100000  36 t-inv F
  0.100000 -0.200000 -0.300000    0.00100000  36 t-inv F
 -0.300000 -0.100000 -0.400000    0.00100000  36 t-inv F
 -0.300000 -0.400000 -0.100000    0.00100000  36 t-inv F
  0.200000 -0.100000  0.300000    0.00100000  36 t-inv F
  0.100000 -0.300000 -0.200000    0.00100000  36 t-inv F
 -0.100000  0.200000  0.300000    0.00100000  36 t-inv F
 -0.300000  0.100000 -0.200000    0.00100000  36 t-inv F
 -0.400000 -0.300000 -0.100000    0.00100000  36 t-inv F
 -0.100000 -0.300000 -0.400000    0.00100000  36 t-inv F
  0.300000  0.200000 -0.100000    0.00100000  36 t-inv F
 -0.200000  0.100000 -0.300000    0.00100000  36 t-inv F
  0.300000 -0.100000  0.200000    0.00100000  36 t-inv F
 -0.200000 -0.300000  0.100000    0.00100000  36 t-inv F
 -0.100000 -0.400000 -0.300000    0.00100000  36 t-inv F
  0.400000  0.100000  0.300000    0.00100000  36 t-inv F
  0.300000  0.400000  0.100000    0.00100000  36 t-inv F
  0.100000  0.300000  0.400000    0.00100000  36 t-inv F
  0.100000  0.500000  0.300000    0.00100000  37 t-inv F
  0.300000  0.100000  0.500000    0.00100000  37 t-inv F
 -0.300000 -0.200000  0.200000    0.00100000  37 t-inv F
 -0.500000 -0.200000 -0.400000    0.00100000  37 t-inv F
 -0.100000  0.400000  0.200000    0.00100000  37 t-inv F
  0.200000  0.400000 -0.100000    0.00100000  37 t-inv F
  0.200000 -0.200000 -0.300000    0.00100000  37 t-inv F
 -0.400000 -0.200000 -0.500000    0.00100000  37 t-inv F
 -0.400000 -0.500000 -0.200000    0.00100000  37 t-inv F
  0.200000 -0.100000  0.400000    0.00100000  37 t-inv F
  0.200000 -0.300000 -0.200000    0.00100000  37 t-inv F
 -0.100000  0.200000  0.400000    0.00100000  37 t-inv F
 -0.300000  0.200000 -0.200000    0.00100000  37 t-inv F
 -0.500000 -0.400000 -0.200000    0.00100000  37 t-inv F
 -0.200000 -0.400000 -0.500000    0.00100000  37 t-inv F
  0.400000  0.200000 -0.100000    0.00100000  37 t-inv F
 -0.200000  0.200000 -0.300000    0.00100000  37 t-inv F
  0.400000 -0.100000  0.200000    0.00100000  37 t-inv F
 -0.200000 -0.300000  0.200000    0.00100000  37 t-inv F
 -0.200000 -0.500000 -0.400000    0.00100000  37 t-inv F
  0.500000  0.100000  0.300000    0.00100000  37 t-inv F
  0.300000  0.500000  0.100000    0.00100000  37 t-inv F
  0.100000  0.300000  0.500000    0.00100000  37 t-inv F
 -0.500000 -0.300000 -0.100000    0.00100000  37 t-inv F
 -0.100000 -0.500000 -0.300000    0.00100000  37 t-inv F
 -0.300000 -0.100000 -0.500000    0.00100000  37 t-inv F
  0.300000  0.200000 -0.200000    0.00100000  37 t-inv F
  0.500000  0.200000  0.400000    0.00100000  37 t-inv F
  0.100000 -0.400000 -0.200000    0.00100000  37 t-inv F
 -0.200000 -0.400000  0.100000    0.00100000  37 t-inv F
 -0.200000  0.200000  0.300000    0.00100000  37 t-inv F
  0.400000  0.200000  0.500000    0.00100000  37 t-inv F
  0.400000  0.500000  0.200000    0.00100000  37 t-inv F
 -0.200000  0.100000 -0.400000    0.00100000  37 t-inv F
 -0.200000  0.300000  0.200000    0.00100000  37 t-inv F
  0.100000 -0.200000 -0.400000    0.00100000  37 t-inv F
  0.300000 -0.200000  0.200000    0.00100000  37 t-inv F
  0.500000  0.400000  0.200000    0.00100000  37 t-inv F
  0.200000  0.400000  0.500000    0.00100000  37 t-inv F
 -0.400000 -0.200000  0.100000    0.00100000  37 t-inv F
  0.200000 -0.200000  0.300000    0.00100000  37 t-inv F
 -0.400000  0.100000 -0.200000    0.00100000  37 t-inv F
  0.200000  0.300000 -0.200000    0.00100000  37 t-inv F
  0.200000  0.500000  0.400000    0.00100000  37 t-inv F
 -0.500000 -0.100000 -0.300000    0.00100000  37 t-inv F
 -0.300000 -0.500000 -0.100000    0.00100000  37 t-inv F
 -0.100000 -0.300000 -0.500000    0.00100000  37 t-inv F
  0.100000 -0.400000  0.300000    0.00100000  38 t-inv F
  0.300000  0.100000 -0.400000    0.00100000  38 t-inv F
 -0.300000 -0.200000 -0.700000    0.00100000  38 t-inv F
  0.400000  0.700000  0.500000    0.00100000  38 t-inv F
 -0.100000 -0.500000  0.200000    0.00100000  38 t-inv F
  0.200000 -0.500000 -0.100000    0.00100000  38 t-inv F
 -0.700000 -0.200000 -0.300000    0.00100000  38 t-inv F
  0.500000  0.700000  0.400000    0.00100000  38 t-inv F
  0.500000  0.400000  0.700000    0.00100000  38 t-inv F
  0.200000 -0.100000 -0.500000    0.00100000  38 t-inv F
 -0.700000 -0.300000 -0.200000    0.00100000  38 t-inv F
 -0.100000  0.200000 -0.500000    0.00100000  38 t-inv F
 -0.300000 -0.700000 -0.200000    0.00100000  38 t-inv F
  0.400000  0.500000  0.700000    0.00100000  38 t-inv F
  0.700000  0.500000  0.400000    0.00100000  38 t-inv F
 -0.500000  0.200000 -0.100000    0.00100000  38 t-inv F
 -0.200000 -0.700000 -0.300000    0.00100000  38 t-inv F
 -0.500000 -0.100000  0.200000    0.00100000  38 t-inv F
 -0.200000 -0.300000 -0.700000    0.00100000  38 t-inv F
  0.700000  0.400000  0.500000    0.00100000  38 t-inv F
 -0.400000  0.100000  0.300000    0.00100000  38 t-inv F
  0.300000 -0.400000  0.100000    0.00100000  38 t-inv F
  0.100000  0.300000 -0.400000    0.00100000  38 t-inv F
  0.400000 -0.300000 -0.100000    0.00100000  38 t-inv F
 -0.100000  0.400000 -0.300000    0.00100000  38 t-inv F
 -0.300000 -0.100000  0.400000    0.00100000  38 t-inv F
  0.300000  0.200000  0.700000    0.00100000  38 t-inv F
 -0.400000 -0.700000 -0.500000    0.00100000  38 t-inv F
  0.100000  0.500000 -0.200000    0.00100000  38 t-inv F
 -0.200000  0.500000  0.100000    0.00100000  38 t-inv F
  0.700000  0.200000  0.300000    0.00100000  38 t-inv F
 -0.500000 -0.700000 -0.400000    0.00100000  38 t-inv F
 -0.500000 -0.400000 -0.700000    0.00100000  38 t-inv F
 -0.200000  0.100000  0.500000    0.00100000  38 t-inv F
  0.700000  0.300000  0.200000    0.00100000  38 t-inv F
  0.100000 -0.200000  0.500000    0.00100000  38 t-inv F
  0.300000  0.700000  0.200000    0.00100000  38 t-inv F
 -0.400000 -0.500000 -0.700000    0.00100000  38 t-inv F
 -0.700000 -0.500000 -0.400000    0.00100000  38 t-inv F
  0.500000 -0.200000  0.100000    0.00100000  38 t-inv F
  0.200000  0.700000  0.300000    0.00100000  38 t-inv F
  0.500000  0.100000 -0.200000    0.00100000  38 t-inv F
  0.200000  0.300000  0.700000    0.00100000  38 t-inv F
 -0.700000 -0.400000 -0.500000    0.00100000  38 t-inv F
  0.400000 -0.100000 -0.300000    0.00100000  38 t-inv F
 -0.300000  0.400000 -0.100000    0.00100000  38 t-inv F
 -0.100000 -0.300000  0.400000    0.00100000  38 t-inv F
  0.100000 -0.300000  0.300000    0.00100000  39 t-inv F
  0.300000  0.100000 -0.300000    0.00100000  39 t-inv F
 -0.300000 -0.200000 -0.600000    0.00100000  39 t-inv F
  0.300000  0.600000  0.400000    0.00100000  39 t-inv F
 -0.100000 -0.400000  0.200000    0.00100000  39 t-inv F
  0.200000 -0.400000 -0.100000    0.00100000  39 t-inv F
 -0.600000 -0.200000 -0.300000    0.00100000  39 t-inv F
  0.400000  0.600000  0.300000    0.00100000  39 t-inv F
  0.400000  0.300000  0.600000    0.00100000  39 t-inv F
  0.200000 -0.100000 -0.400000    0.00100000  39 t-inv F
 -0.600000 -0.300000 -0.200000    0.00100000  39 t-inv F
 -0.100000  0.200000 -0.400000    0.00100000  39 t-inv F
 -0.300000 -0.600000 -0.200000    0.00100000  39 t-inv F
  0.300000  0.400000  0.600000    0.00100000  39 t-inv F
  0.600000  0.400000  0.300000    0.00100000  39 t-inv F
 -0.400000  0.200000 -0.100000    0.00100000  39 t-inv F
 -0.200000 -0.600000 -0.300000    0.00100000  39 t-inv F
 -0.400000 -0.100000  0.200000    0.00100000  39 t-inv F
 -0.200000 -0.300000 -0.600000    0.00100000  39 t-inv F
  0.600000  0.300000  0.400000    0.00100000  39 t-inv F
 -0.300000  0.100000  0.300000    0.00100000  39 t-inv F
  0.300000 -0.300000  0.100000    0.00100000  39 t-inv F
  0.100000  0.300000 -0.300000    0.00100000  39 t-inv F
  0.300000 -0.300000 -0.100000    0.00100000  39 t-inv F
 -0.100000  0.300000 -0.300000    0.00100000  39 t-inv F
 -0.300000 -0.100000  0.300000    0.00100000  39 t-inv F
  0.300000  0.200000  0.600000    0.00100000  39 t-inv F
 -0.300000 -0.600000 -0.400000    0.00100000  39 t-inv F
  0.100000  0.400000 -0.200000    0.00100000  39 t-inv F
 -0.200000  0.400000  0.100000    0.00100000  39 t-inv F
  0.600000  0.200000  0.300000    0.00100000  39 t-inv F
 -0.400000 -0.600000 -0.300000    0.00100000  39 t-inv F
 -0.400000 -0.300000 -0.600000    0.00100000  39 t-inv F
 -0.200000  0.100000  0.400000    0.00100000  39 t-inv F
  0.600000  0.300000  0.200000    0.00100000  39 t-inv F
  0.100000 -0.200000  0.400000    0.00100000  39 t-inv F
  0.300000  0.600000  0.200000    0.00100000  39 t-inv F
 -0.300000 -0.400000 -0.600000    0.00100000  39 t-inv F
 -0.600000 -0.400000 -0.300000    0.00100000  39 t-inv F
  0.400000 -0.200000  0.100000    0.00100000  39 t-inv F
  0.200000  0.600000  0.300000    0.00100000  39 t-inv F
  0.400000  0.100000 -0.200000    0.00100000  39 t-inv F
  0.200000  0.300000  0.600000    0.00100000  39 t-inv F
 -0.600000 -0.300000 -0.400000    0.00100000  39 t-inv F
  0.300000 -0.100000 -0.300000    0.00100000  39 t-inv F
 -0.300000  0.300000 -0.100000    0.00100000  39 t-inv F
 -0.100000 -0.300000  0.300000    0.00100000  39 t-inv F
  0.100000 -0.200000  0.300000    0.00100000  40 t-inv F
  0.300000  0.100000 -0.200000    0.00100000  40 t-inv F
 -0.300000 -0.200000 -0.500000    0.00100000  40 t-inv F
  0.200000  0.500000  0.300000    0.00100000  40 t-inv F
 -0.100000 -0.300000  0.200000    0.00100000  40 t-inv F
  0.200000 -0.300000 -0.100000    0.00100000  40 t-inv F
 -0.500000 -0.200000 -0.300000    0.00100000  40 t-inv F
  0.300000  0.500000  0.200000    0.00100000  40 t-inv F
  0.300000  0.200000  0.500000    0.00100000  40 t-inv F
  0.200000 -0.100000 -0.300000    0.00100000  40 t-inv F
 -0.500000 -0.300000 -0.200000    0.00100000  40 t-inv F
 -0.100000  0.200000 -0.300000    0.00100000  40 t-inv F
 -0.300000 -0.500000 -0.200000    0.00100000  40 t-inv F
  0.200000  0.300000  0.500000    0.00100000  40 t-inv F
  0.500000  0.300000  0.200000    0.00100000  40 t-inv F
 -0.300000  0.200000 -0.100000    0.00100000  40 t-inv F
 -0.200000 -0.500000 -0.300000    0.00100000  40 t-inv F
 -0.300000 -0.100000  0.200000    0.00100000  40 t-inv F
 -0.200000 -0.300000 -0.500000    0.00100000  40 t-inv F
  0.500000  0.200000  0.300000    0.00100000  40 t-inv F
 -0.200000  0.100000  0.300000    0.00100000  40 t-inv F
  0.300000 -0.200000  0.100000    0.00100000  40 t-inv F
  0.100000  0.300000 -0.200000    0.00100000  40 t-inv F
  0.100000  0.500000  0.400000    0.00100000  41 t-inv F
  0.400000  0.100000  0.500000    0.00100000  41 t-inv F
 -0.400000 -0.300000  0.100000    0.00100000  41 t-inv F
 -0.500000 -0.100000 -0.400000    0.00100000  41 t-inv F
 -0.100000  0.400000  0.300000    0.00100000  41 t-inv F
  0.300000  0.400000 -0.100000    0.00100000  41 t-inv F
  0.100000 -0.300000 -0.400000    0.00100000  41 t-inv F
 -0.400000 -0.100000 -0.500000    0.00100000  41 t-inv F
 -0.400000 -0.500000 -0.100000    0.00100000  41 t-inv F
  0.300000 -0.100000  0.400000    0.00100000  41 t-inv F
  0.100000 -0.400000 -0.300000    0.00100000  41 t-inv F
 -0.100000  0.300000  0.400000    0.00100000  41 t-inv F
 -0.400000  0.100000 -0.300000    0.00100000  41 t-inv F
 -0.500000 -0.400000 -0.100000    0.00100000  41 t-inv F
 -0.100000 -0.400000 -0.500000    0.00100000  41 t-inv F
  0.400000  0.300000 -0.100000    0.00100000  41 t-inv F
 -0.300000  0.100000 -0.400000    0.00100000  41 t-inv F
  0.400000 -0.100000  0.300000    0.00100000  41 t-inv F
 -0.300000 -0.400000  0.100000    0.00100000  41 t-inv F
 -0.100000 -0.500000 -0.400000    0.00100000  41 t-inv F
  0.500000  0.100000  0.400000    0.00100000  41 t-inv F
  0.400000  0.500000  0.100000    0.00100000  41 t-inv F
  0.100000  0.400000  0.500000    0.00100000  41 t-inv F
  0.100000 -0.400000  0.400000    0.00100000  42 t-inv F
  0.400000  0.100000 -0.400000    0.00100000  42 t-inv F
 -0.400000 -0.300000 -0.800000    0.00100000  42 t-inv F
  0.400000  0.800000  0.500000    0.00100000  42 t-inv F
 -0.100000 -0.500000  0.300000    0.00100000  42 t-inv F
  0.300000 -0.500000 -0.100000    0.00100000  42 t-inv F
 -0.800000 -0.300000 -0.400000    0.00100000  42 t-inv F
  0.500000  0.800000  0.400000    0.00100000  42 t-inv F
  0.500000  0.400000  0.800000    0.00100000  42 t-inv F
  0.300000 -0.100000 -0.500000    0.00100000  42 t-inv F
 -0.800000 -0.400000 -0.300000    0.00100000  42 t-inv F
 -0.100000  0.300000 -0.500000    0.00100000  42 t-inv F
 -0.400000 -0.800000 -0.300000    0.00100000  42 t-inv F
  0.400000  0.500000  0.800000    0.00100000  42 t-inv F
  0.800000  0.500000  0.400000    0.00100000  42 t-inv F
 -0.500000  0.300000 -0.100000    0.00100000  42 t-inv F
 -0.300000 -0.800000 -0.400000    0.00100000  42 t-inv F
 -0.500000 -0.100000  0.300000    0.00100000  42 t-inv F
 -0.300000 -0.400000 -0.800000    0.00100000  42 t-inv F
  0.800000  0.400000  0.500000    0.00100000  42 t-inv F
 -0.400000  0.100000  0.400000    0.00100000  42 t-inv F
  0.400000 -0.400000  0.100000    0.00100000  42 t-inv F
  0.100000  0.400000 -0.400000    0.00100000  42 t-inv F
  0.400000 -0.400000 -0.100000    0.00100000  42 t-inv F
 -0.100000  0.400000 -0.400000    0.00100000  42 t-inv F
 -0.400000 -0.100000  0.400000    0.00100000  42 t-inv F
  0.400000  0.300000  0.800000    0.00100000  42 t-inv F
 -0.400000 -0.800000 -0.500000    0.00100000  42 t-inv F
  0.100000  0.500000 -0.300000    0.00100000  42 t-inv F
 -0.300000  0.500000  0.100000    0.00100000  42 t-inv F
  0.800000  0.300000  0.400000    0.00100000  42 t-inv F
 -0.500000 -0.800000 -0.400000    0.00100000  42 t-inv F
 -0.500000 -0.400000 -0.800000    0.00100000  42 t-inv F
 -0.300000  0.100000  0.500000    0.00100000  42 t-inv F
  0.800000  0.400000  0.300000    0.00100000  42 t-inv F
  0.100000 -0.300000  0.500000    0.00100000  42 t-inv F
  0.400000  0.800000  0.300000    0.00100000  42 t-inv F
 -0.400000 -0.500000 -0.800000    0.00100000  42 t-inv F
 -0.800000 -0.500000 -0.400000    0.00100000  42 t-inv F
  0.500000 -0.300000  0.100000    0.00100000  42 t-inv F
  0.300000  0.800000  0.400000    0.00100000  42 t-inv F
  0.500000  0.100000 -0.300000    0.00100000  42 t-inv F
  0.300000  0.400000  0.800000    0.00100000  42 t-inv F
 -0.800000 -0.400000 -0.500000    0.00100000  42 t-inv F
  0.400000 -0.100000 -0.400000    0.00100000  42 t-inv F
 -0.400000  0.400000 -0.100000    0.00100000  42 t-inv F
 -0.100000 -0.400000  0.400000    0.00100000  42 t-inv F
  0.100000 -0.300000  0.400000    0.00100000  43 t-inv F
  0.400000  0.100000 -0.300000    0.00100000  43 t-inv F
 -0.400000 -0.300000 -0.700000    0.00100000  43 t-inv F
  0.300000  0.700000  0.400000    0.00100000  43 t-inv F
 -0.100000 -0.400000  0.300000    0.00100000  43 t-inv F
  0.300000 -0.400000 -0.100000    0.00100000  43 t-inv F
 -0.700000 -0.300000 -0.400000    0.00100000  43 t-inv F
  0.400000  0.700000  0.300000    0.00100000  43 t-inv F
  0.400000  0.300000  0.700000    0.00100000  43 t-inv F
  0.300000 -0.100000 -0.400000    0.00100000  43 t-inv F
 -0.700000 -0.400000 -0.300000    0.00100000  43 t-inv F
 -0.100000  0.300000 -0.400000    0.00100000  43 t-inv F
 -0.400000 -0.700000 -0.300000    0.00100000  43 t-inv F
  0.300000  0.400000  0.700000    0.00100000  43 t-inv F
  0.700000  0.400000  0.300000    0.00100000  43 t-inv F
 -0.400000  0.300000 -0.100000    0.00100000  43 t-inv F
 -0.300000 -0.700000 -0.400000    0.00100000  43 t-inv F
 -0.400000 -0.100000  0.300000    0.00100000  43 t-inv F
 -0.300000 -0.400000 -0.700000    0.00100000  43 t-inv F
  0.700000  0.300000  0.400000    0.00100000  43 t-inv F
 -0.300000  0.100000  0.400000    0.00100000  43 t-inv F
  0.400000 -0.300000  0.100000    0.00100000  43 t-inv F
  0.100000  0.400000 -0.300000    0.00100000  43 t-inv F
  0.100000 -0.400000  0.500000    0.00100000  44 t-inv F
  0.500000  0.100000 -0.400000    0.00100000  44 t-inv F
 -0.500000 -0.400000 -0.900000    0.00100000  44 t-inv F
  0.400000  0.900000  0.500000    0.00100000  44 t-inv F
 -0.100000 -0.500000  0.400000    0.00100000  44 t-inv F
  0.400000 -0.500000 -0.100000    0.00100000  44 t-inv F
  0.500000  0.900000  0.400000    0.00100000  44 t-inv F
  0.500000  0.400000  0.900000    0.00100000  44 t-inv F
 -0.900000 -0.500000 -0.400000    0.00100000  44 t-inv F
 -0.100000  0.400000 -0.500000    0.00100000  44 t-inv F
 -0.400000 -0.900000 -0.500000    0.00100000  44 t-inv F
  0.200000 -0.400000  0.400000    0.00100000  45 t-inv F
  0.400000  0.200000 -0.400000    0.00100000  45 t-inv F
 -0.400000 -0.200000 -0.800000    0.00100000  45 t-inv F
  0.400000  0.800000  0.600000    0.00100000  45 t-inv F
 -0.200000 -0.600000  0.200000    0.00100000  45 t-inv F
  0.200000 -0.600000 -0.200000    0.00100000  45 t-inv F
 -0.800000 -0.200000 -0.400000    0.00100000  45 t-inv F
  0.600000  0.800000  0.400000    0.00100000  45 t-inv F
  0.600000  0.400000  0.800000    0.00100000  45 t-inv F
  0.200000 -0.200000 -0.600000    0.00100000  45 t-inv F
 -0.800000 -0.400000 -0.200000    0.00100000  45 t-inv F
 -0.200000  0.200000 -0.600000    0.00100000  45 t-inv F
 -0.400000 -0.800000 -0.200000    0.00100000  45 t-inv F
  0.400000  0.600000  0.800000    0.00100000  45 t-inv F
  0.800000  0.600000  0.400000    0.00100000  45 t-inv F
 -0.600000  0.200000 -0.200000    0.00100000  45 t-inv F
 -0.200000 -0.800000 -0.400000    0.00100000  45 t-inv F
 -0.600000 -0.200000  0.200000    0.00100000  45 t-inv F
 -0.200000 -0.400000 -0.800000    0.00100000  45 t-inv F
  0.800000  0.400000  0.600000    0.00100000  45 t-inv F
 -0.400000  0.200000  0.400000    0.00100000  45 t-inv F
  0.400000 -0.400000  0.200000    0.00100000  45 t-inv F
  0.200000  0.400000 -0.400000    0.00100000  45 t-inv F
  0.200000 -0.300000  0.400000    0.00100000  46 t-inv F
  0.400000  0.200000 -0.300000    0.00100000  46 t-inv F
 -0.400000 -0.200000 -0.700000    0.00100000  46 t-inv F
  0.300000  0.700000  0.500000    0.00100000  46 t-inv F
 -0.200000 -0.500000  0.200000    0.00100000  46 t-inv F
  0.200000 -0.500000 -0.200000    0.00100000  46 t-inv F
 -0.700000 -0.200000 -0.400000    0.00100000  46 t-inv F
  0.500000  0.700000  0.300000    0.00100000  46 t-inv F
  0.500000  0.300000  0.700000    0.00100000  46 t-inv F
  0.200000 -0.200000 -0.500000    0.00100000  46 t-inv F
 -0.700000 -0.400000 -0.200000    0.00100000  46 t-inv F
 -0.200000  0.200000 -0.500000    0.00100000  46 t-inv F
 -0.400000 -0.700000 -0.200000    0.00100000  46 t-inv F
  0.300000  0.500000  0.700000    0.00100000  46 t-inv F
  0.700000  0.500000  0.300000    0.00100000  46 t-inv F
 -0.500000  0.200000 -0.200000    0.00100000  46 t-inv F
 -0.200000 -0.700000 -0.400000    0.00100000  46 t-inv F
 -0.500000 -0.200000  0.200000    0.00100000  46 t-inv F
 -0.200000 -0.400000 -0.700000    0.00100000  46 t-inv F
  0.700000  0.300000  0.500000    0.00100000  46 t-inv F
 -0.300000  0.200000  0.400000    0.00100000  46 t-inv F
  0.400000 -0.300000  0.200000    0.00100000  46 t-inv F
  0.200000  0.400000 -0.300000    0.00100000  46 t-inv F
  0.200000 -0.300000  0.500000    0.00100000  47 t-inv F
  0.500000  0.200000 -0.300000    0.00100000  47 t-inv F
 -0.500000 -0.300000 -0.800000    0.00100000  47 t-inv F
  0.300000  0.800000  0.500000    0.00100000  47 t-inv F
 -0.200000 -0.500000  0.300000    0.00100000  47 t-inv F
  0.300000 -0.500000 -0.200000    0.00100000  47 t-inv F
  0.500000  0.800000  0.300000    0.00100000  47 t-inv F
  0.500000  0.300000  0.800000    0.00100000  47 t-inv F
 -0.800000 -0.500000 -0.300000    0.00100000  47 t-inv F
 -0.200000  0.300000 -0.500000    0.00100000  47 t-inv F
 -0.300000 -0.800000 -0.500000    0.00100000  47 t-inv F


--------------------------------------------------------------------------------------------------------




 Dimension of arrays:
   k-points           NKPTS =     47   k-points in BZ     NKDIM =     47   number of bands    NBANDS=    144
   number of dos      NEDOS =    301   number of ions     NIONS =      2
   non local maximal  LDIM  =      4   non local SUM 2l+1 LMDIM =      8
   total plane-waves  NPLWV =  46656
   max r-space proj   IRMAX =      1   max aug-charges    IRDMAX=  39039
   dimension x,y,z NGX =    36 NGY =   36 NGZ =   36
   dimension x,y,z NGXF=    72 NGYF=   72 NGZF=   72
   support grid    NGXF=    72 NGYF=   72 NGZF=   72
   ions per type =               2
   NGX,Y,Z   is equivalent  to a cutoff of  15.57, 15.57, 15.57 a.u.
   NGXF,Y,Z  is equivalent  to a cutoff of  31.14, 31.14, 31.14 a.u.

 SYSTEM =  unknown system                          
 POSCAR =  Si2                                     

 Startparameter for this run:
[...]
    101      -0.6825      0.00000
    102       0.6826      0.00000
    103      -0.3367      0.00000
    104       0.3368      0.00000
    105      -4.9422      0.00000
    106       4.9423      0.00000
    107      -0.5449      0.00000
    108       0.5449      0.00000
    109      -0.2173      0.00000
    110       0.2173      0.00000
    111      -1.0014      0.00000
    112       1.0014      0.00000
    113      -4.8844      0.00000
    114       4.8844      0.00000
    115      -5.0584      0.00000
    116       5.0584      0.00000
    117      -0.5927      0.00000
    118       0.5928      0.00000
    119      -1.9738      0.00000
    120       1.9738      0.00000
    121      -3.4835      0.00000
    122       3.4835      0.00000
    123      -1.6878      0.00000
    124       1.6878      0.00000
    125      -2.5799      0.00000
    126       2.5800      0.00000
    127      -0.0868      0.00000
    128       0.0868      0.00000
    129      -3.6478      0.00000
    130       3.6478      0.00000
    131      -0.6864      0.00000
    132       0.6864      0.00000
    133      -1.5466      0.00000
    134       1.5466      0.00000
    135      -1.7172      0.00000
    136       1.7172      0.00000
    137      -0.4031      0.00000
    138       0.4031      0.00000
    139      -0.7839      0.00000
    140       0.7839      0.00000
    141      -2.2883      0.00000
    142       2.2883      0.00000
    143      -0.8591      0.00000
    144       0.8591      0.00000

 k-point 171 :       0.5000    0.2000   -0.3000
  band No.  band energies     occupation 
      1       0.0000      0.00000
      2       0.0000      0.00000
      3       0.0000      0.00000
      4       0.0000      0.00000
      5       0.0000      0.00000
      6       0.0000      0.00000
      7       0.0000      0.00000
      8       0.0000      0.00000
      9       0.0000      0.00000
     10       0.0000      0.00000
     11       0.0000      0.00000
     12       0.0000      0.00000
     13       0.0000      0.00000
     14       0.0000      0.00000
     15       0.0000      0.00000
     16       0.0000      0.00000
     17       0.0000      0.00000
     18       0.0000      0.00000
     19       0.0000      0.00000
     20       0.0000      0.00000
     21       0.0000      0.00000
     22       0.0000      0.00000
     23       0.0000      0.00000
     24       0.0000      0.00000
     25       0.0000      0.00000
     26       0.0000      0.00000
     27      -0.0000      0.00000
     28       0.0000      0.00000
     29       0.0000      0.00000
     30       0.0000      0.00000
     31       0.0000      0.00000
     32       0.0000      0.00000
     33       0.0000      0.00000
     34       0.0000      0.00000
     35       0.0000      0.00000
     36       0.0000      0.00000
     37       0.0000      0.00000
     38       0.0000      0.00000
     39       0.0000      0.00000
     40       0.0000      0.00000
     41       0.0000      0.00000
     42       0.0000      0.00000
     43       0.0000      0.00000
     44       0.0000      0.00000
     45       0.0000      0.00000
     46       0.0000      0.00000
     47       0.0000      0.00000
     48       0.0000      0.00000
     49       0.0000      0.00000
     50       0.0000      0.00000
     51       0.0000      0.00000
     52       0.0000      0.00000
     53       0.0000      0.00000
     54       0.0000      0.00000
     55       0.0000      0.00000
     56       0.0000      0.00000
     57       0.0000      0.00000
     58       0.0000      0.00000
     59       0.0000      0.00000
     60       0.0000      0.00000
     61       0.0000      0.00000
     62       0.0000      0.00000
     63       0.0000      0.00000
     64       0.0000      0.00000
     65       0.0000      0.00000
     66       0.0000      0.00000
     67       0.0000      0.00000
     68       0.0000      0.00000
     69       0.0000      0.00000
     70       0.0000      0.00000
     71       0.0000      0.00000
     72       0.0000      0.00000
     73       0.0000      0.00000
     74       0.0000      0.00000
     75       0.0000      0.00000
     76       0.0000      0.00000
     77       0.0000      0.00000
     78       0.0000      0.00000
     79       0.0000      0.00000
     80       0.0000      0.00000
     81       0.0000      0.00000
     82       0.0000      0.00000
     83       0.0000      0.00000
     84       0.0000      0.00000
     85       0.0000      0.00000
     86       0.0000      0.00000
     87       0.0000      0.00000
     88       0.0000      0.00000
     89       0.0000      0.00000
     90       0.0000      0.00000
     91       0.0000      0.00000
     92       0.0000      0.00000
     93       0.0000      0.00000
     94       0.0000      0.00000
     95       0.0000      0.00000
     96       0.0000      0.00000
     97       0.0000      0.00000
     98       0.0000      0.00000
     99       0.0000      0.00000
    100       0.0000      0.00000
    101       0.0000      0.00000
    102       0.0000      0.00000
    103       0.0000      0.00000
    104       0.0000      0.00000
    105       0.0000      0.00000
    106       0.0000      0.00000
    107       0.0000      0.00000
    108       0.0000      0.00000
    109       0.0000      0.00000
    110       0.0000      0.00000
    111       0.0000      0.00000
    112       0.0000      0.00000
    113       0.0000      0.00000
    114       0.0000      0.00000
    115       0.0000      0.00000
    116       0.0000      0.00000
    117       0.0000      0.00000
    118       0.0000      0.00000
    119       0.0000      0.00000
    120       0.0000      0.00000
    121       0.0000      0.00000
    122       0.0000      0.00000
    123       0.0000      0.00000
    124       0.0000      0.00000
    125       0.0000      0.00000
    126       0.0000      0.00000
    127       0.0000      0.00000
    128       0.0000      0.00000
    129       0.0000      0.00000
    130       0.0000      0.00000
    131       0.0000      0.00000
    132       0.0000      0.00000
    133       0.0000      0.00000
    134       0.0000      0.00000
    135       0.0000      0.00000
    136       0.0000      0.00000
    137       0.0000      0.00000
    138       0.0000      0.00000
    139       0.0000      0.00000
    140       0.0000      0.00000
    141       0.0000      0.00000
    142       0.0000      0.00000
    143       0.0000      0.00000
    144       0.0000      0.00000


------------------------ aborting loop because EDIFF is reached ----------------------------------------


    FORLOC:  cpu time    0.0003: real time    0.0003
    FORNL :  cpu time    0.0613: real time    0.0613
    STRESS:  cpu time    1.0588: real time    1.0587
    FORCOR:  cpu time    0.0092: real time    0.0092
    OFIELD:  cpu time    0.0000: real time    0.0000
    FORLOC:  cpu time    0.0001: real time    0.0001
    FORNL :  cpu time    0.0615: real time    0.0615
    STRESS:  cpu time    1.0596: real time    1.0594
    FORCOR:  cpu time    0.0091: real time    0.0091
    OFIELD:  cpu time    0.0000: real time    0.0000
    FORLOC:  cpu time    0.0001: real time    0.0001
    FORNL :  cpu time    0.0614: real time    0.0614
    STRESS:  cpu time    1.0598: real time    1.0596
    FORCOR:  cpu time    0.0091: real time    0.0091
    OFIELD:  cpu time    0.0000: real time    0.0000
    FORLOC:  cpu time    0.0001: real time    0.0001
    FORNL :  cpu time    0.0614: real time    0.0614
    STRESS:  cpu time    1.0586: real time    1.0585
    FORCOR:  cpu time    0.0092: real time    0.0092
    OFIELD:  cpu time    0.0000: real time    0.0000

 INTERNAL STRAIN TENSOR  FOR ION    1  DIRECTION 1   (eV/Angst):
 -----------------------------------------------------------------------------
    -0.00486  0.00000  0.00000
     0.00000  0.00261  9.53161
     0.00000  9.53161  0.00261


 POSITION                   FORCE-CONSTANT FOR ION    1 DIRECTION 1 (eV/Angst/Angst)
 -----------------------------------------------------------------------------------
      0.00000      0.00000      0.00000       -13.345949     -0.000000     -0.000000
      1.35900      1.35900      1.35900        13.345949      0.000000      0.000000
 -----------------------------------------------------------------------------------
    total drift:                                0.000000      0.000000      0.000000


 BORN EFFECTIVE CHARGE FOR ION    1 DIRECTION 1 :   0.001   0.000   0.000
                   rigid augmentation           :   0.229  -0.000  -0.000
                   ionic contribution           :   4.000  -0.000  -0.000
                   Berry contribution           :  -4.228   0.000   0.000


--------------------------------------------------------------------------------------------------------


  LATTYP: Found a face centered cubic cell.
 ALAT       =     5.4359997400
  
  Lattice vectors:
  
 A1 = (   0.0000000000,   2.7179998700,   2.7179998700)
 A2 = (   2.7179998700,   0.0000000000,   2.7179998700)
 A3 = (   2.7179998700,   2.7179998700,   0.0000000000)


Analysis of symmetry for initial positions (statically):
=====================================================================
 Subroutine PRICEL returns:
 Original cell was already a primitive cell.
 

 Routine SETGRP: Setting up the symmetry group for a 
 face centered cubic supercell.


 Subroutine GETGRP returns: Found 48 space group operations
 (whereof 24 operations were pure point group operations)
 out of a pool of 48 trial point group operations.


The static configuration has the point symmetry T_d .
 The point group associated with its full space group is O_h .


Analysis of symmetry for dynamics (positions and initial velocities):
=====================================================================
 Subroutine PRICEL returns:
 Original cell was already a primitive cell.
 

 Routine SETGRP: Setting up the symmetry group for a 
 face centered cubic supercell.


 Subroutine GETGRP returns: Found 48 space group operations
 (whereof 24 operations were pure point group operations)
 out of a pool of 48 trial point group operations.


The dynamic configuration has the point symmetry T_d .
 The point group associated with its full space group is O_h .


Analysis of structural, dynamic, and magnetic symmetry:
=====================================================================
 Subroutine PRICEL returns:
 Original cell was already a primitive cell.
 

 Routine SETGRP: Setting up the symmetry group for a 
 face centered cubic supercell.


 Subroutine GETGRP returns: Found 48 space group operations
 (whereof 24 operations were pure point group operations)
 out of a pool of 48 trial point group operations.


The magnetic configuration has the point symmetry T_d .
 The point group associated with its full space group is O_h .


 Subroutine INISYM returns: Found 48 space group operations
 (whereof 24 operations are pure point group operations),
 and found     1 'primitive' translations



--------------------------------------------------------------------------------------------------------




 MACROSCOPIC STATIC DIELECTRIC TENSOR (including local field effects in DFT)
 ------------------------------------------------------
          13.192420    -0.000000     0.000000
          -0.000000    13.192420     0.000000
           0.000000     0.000000    13.192420
 ------------------------------------------------------


 PIEZOELECTRIC TENSOR (including local field effects)  for field in x, y, z        (e  Angst)
          XX          YY          ZZ          XY          YZ          ZX
  --------------------------------------------------------------------------------
  x    -0.00000     0.00000     0.00000    -0.00000     0.00000     0.00000
  y     0.00000     0.00000     0.00000    -0.00000     0.00000     0.00000
  z     0.00000     0.00000    -0.00000    -0.00000    -0.00000     0.00000

 PIEZOELECTRIC TENSOR (including local field effects)  for field in x, y, z        (C/m^2)
          XX          YY          ZZ          XY          YZ          ZX
  --------------------------------------------------------------------------------
  x    -0.00000     0.00000     0.00000    -0.00000     0.00000     0.00000
  y     0.00000     0.00000     0.00000    -0.00000     0.00000     0.00000
  z     0.00000     0.00000    -0.00000    -0.00000    -0.00000     0.00000
 
 BORN EFFECTIVE CHARGES (including local field effects) (in |e|, cummulative output)
 ---------------------------------------------------------------------------------
 ion    1
    1    -0.00000    -0.00000    -0.00000
    2     0.00000    -0.00000    -0.00000
    3    -0.00000     0.00000    -0.00000
 ion    2
    1     0.00000     0.00000     0.00000
    2    -0.00000     0.00000     0.00000
    3     0.00000    -0.00000     0.00000

 INTERNAL STRAIN TENSOR FOR ION    1 for displacements in x,y,z  (eV/Angst):
          X           Y           Z          XY          YZ          ZX
  --------------------------------------------------------------------------------
  x     0.00000     0.00000    -0.00000     0.00000     9.53161    -0.00000
  y     0.00000    -0.00000     0.00000     0.00000    -0.00000     9.53161
  z    -0.00000    -0.00000     0.00000     9.53161     0.00000    -0.00000

 INTERNAL STRAIN TENSOR FOR ION    2 for displacements in x,y,z  (eV/Angst):
          X           Y           Z          XY          YZ          ZX
  --------------------------------------------------------------------------------
  x    -0.00000    -0.00000     0.00000    -0.00000    -9.53161     0.00000
  y    -0.00000     0.00000    -0.00000    -0.00000     0.00000    -9.53161
  z     0.00000     0.00000    -0.00000    -9.53161    -0.00000     0.00000


--------------------------------------------------------------------------------------------------------


 
 SECOND DERIVATIVES (NOT SYMMETRIZED)
 ------------------------------------
               1X          1Y          1Z          2X          2Y          2Z 
  1X   -13.345949    0.000000   -0.000000   13.345949   -0.000000    0.000000
  1Y     0.000000  -13.345949   -0.000000   -0.000000   13.345949    0.000000
  1Z    -0.000000   -0.000000  -13.345949    0.000000    0.000000   13.345949
  2X    13.345949   -0.000000    0.000000  -13.345949    0.000000   -0.000000
  2Y    -0.000000   13.345949    0.000000    0.000000  -13.345949   -0.000000
  2Z     0.000000    0.000000   13.345949   -0.000000   -0.000000  -13.345949
 
 
 Eigenvectors and eigenvalues of the dynamical matrix
 ----------------------------------------------------
 
 
   1 f  =   15.240641 THz    95.759772 2PiTHz  508.373047 cm-1    63.030247 meV
             X         Y         Z           dx          dy          dz
      0.000000  0.000000  0.000000     0.701646    0.087706   -0.000000  
      1.359000  1.359000  1.359000    -0.701646   -0.087706    0.000000  
 
   2 f  =   15.240641 THz    95.759772 2PiTHz  508.373047 cm-1    63.030247 meV
             X         Y         Z           dx          dy          dz
      0.000000  0.000000  0.000000     0.000000    0.000000    0.707107  
      1.359000  1.359000  1.359000    -0.000000    0.000000   -0.707107  
 
   3 f  =   15.240641 THz    95.759772 2PiTHz  508.373047 cm-1    63.030247 meV
             X         Y         Z           dx          dy          dz
      0.000000  0.000000  0.000000    -0.087706    0.701646   -0.000000  
      1.359000  1.359000  1.359000     0.087706   -0.701646    0.000000  
 
   4 f  =    0.000000 THz     0.000001 2PiTHz    0.000006 cm-1     0.000001 meV
             X         Y         Z           dx          dy          dz
      0.000000  0.000000  0.000000     0.043693   -0.705756   -0.000000  
      1.359000  1.359000  1.359000     0.043693   -0.705756    0.000000  
 
   5 f  =    0.000000 THz     0.000000 2PiTHz    0.000002 cm-1     0.000000 meV
             X         Y         Z           dx          dy          dz
      0.000000  0.000000  0.000000    -0.705756   -0.043693   -0.000000  
      1.359000  1.359000  1.359000    -0.705756   -0.043693    0.000000  
 
   6 f  =    0.000000 THz     0.000000 2PiTHz    0.000000 cm-1     0.000000 meV
             X         Y         Z           dx          dy          dz
      0.000000  0.000000  0.000000     0.000000    0.000000    0.707107  
      1.359000  1.359000  1.359000    -0.000000    0.000000    0.707107  
 


--------------------------------------------------------------------------------------------------------




 MACROSCOPIC STATIC DIELECTRIC TENSOR IONIC CONTRIBUTION
 ------------------------------------------------------
           0.000000     0.000000     0.000000
           0.000000     0.000000    -0.000000
           0.000000    -0.000000     0.000000
 ------------------------------------------------------


 ELASTIC MODULI CONTR FROM IONIC RELAXATION (kBar)
 Direction    XX          YY          ZZ          XY          YZ          ZX
 --------------------------------------------------------------------------------
 XX          -0.0000     -0.0000     -0.0000      0.0000     -0.0000     -0.0000
 YY          -0.0000     -0.0000      0.0000      0.0000     -0.0000      0.0000
 ZZ          -0.0000      0.0000     -0.0000     -0.0000      0.0000     -0.0000
 XY           0.0000      0.0000     -0.0000   -271.5908      0.0000      0.0000
 YZ          -0.0000     -0.0000      0.0000      0.0000   -271.5908      0.0000
 ZX          -0.0000      0.0000     -0.0000      0.0000      0.0000   -271.5908
 --------------------------------------------------------------------------------


 PIEZOELECTRIC TENSOR IONIC CONTR  for field in x, y, z        (C/m^2)
          XX          YY          ZZ          XY          YZ          ZX
  --------------------------------------------------------------------------------
  x    -0.00000    -0.00000     0.00000    -0.00000    -0.00000    -0.00000
  y    -0.00000     0.00000    -0.00000    -0.00000     0.00000    -0.00000
  z     0.00000     0.00000     0.00000    -0.00000    -0.00000     0.00000


--------------------------------------------------------------------------------------------------------


     LOOP+:  cpu time  407.1780: real time  407.1350
    4ORBIT:  cpu time    0.0000: real time    0.0000
 


 total charge     
 
# of ion       s       p       d       tot
------------------------------------------
    1        0.752   0.937   0.000   1.689
    2        0.752   0.937   0.000   1.689
--------------------------------------------------
tot          1.504   1.873   0.000   3.377
 


 magnetization (x)
 
# of ion       s       p       d       tot
------------------------------------------
    1       -0.000  -0.000   0.000  -0.000
    2       -0.000  -0.000   0.000  -0.000
--------------------------------------------------
tot         -0.000  -0.000   0.000  -0.000
 
 BZINTS: Fermi energy:    6.231951;    8.000000 electrons
         Band energy: 0.545656E+01;  BLOECHL correction:    0.000000

 total amount of memory used by VASP MPI-rank0    42629. kBytes
=======================================================================

   base      :      30000. kBytes
   nonl-proj :       5253. kBytes
   fftplans  :        394. kBytes
   grid      :       4155. kBytes
   one-center:         12. kBytes
   wavefun   :       2815. kBytes
 
  
  
 General timing and accounting informations for this job:
 ========================================================
  
                  Total CPU time used (sec):      414.424
                            User time (sec):      412.016
                          System time (sec):        2.408
                         Elapsed time (sec):      415.105
  
                   Maximum memory used (kb):      709960.
                   Average memory used (kb):           0.
  
                          Minor page faults:        84445
                          Major page faults:            0
                 Voluntary context switches:         7735
