 vasp.6.2.1 16May21 (build Oct 27 2021 18:14:32) complex                        
  
 executed on             LinuxIFC date 2021.10.29  15:54:15
 running on    4 total cores
 distrk:  each k-point on    4 cores,    1 groups
 distr:  one band on NCORE=   4 cores,    1 groups


--------------------------------------------------------------------------------------------------------


 INCAR:
   ALGO = All
   EDIFF = 1e-05
   EDIFFG = -0.02
   ENAUG = 1360.0
   ENCUT = 680.0
   GGA = Pe
   HFSCREEN = 0.2
   IBRION = 2
   ISIF = 3
   ISMEAR = 0
   ISPIN = 1
   LAECHG = True
   LASPH = True
   LCHARG = False
   LELF = True
   LHFCALC = True
   LMIXTAU = True
   LORBIT = 11
   LREAL = Auto
   LVTOT = True
   LWAVE = False
   NBANDS = 11
   NCORE = 4
   NELM = 200
   NELMIN = 5
   NSW = 0
   PREC = Accurate
   PRECFOCK = Fast
   SIGMA = 0.01

 POTCAR:    PAW_PBE Si 05Jan2001                  
 WARNING: For LVTOT=.TRUE., VASP.5.x writes the TOTAL local potential to the
     file LOCPOT. If you want only the Hartree contributions, use LVHAR=.TRUE.
     instead. 

 POTCAR:    PAW_PBE Si 05Jan2001                  
   VRHFIN =Si: s2p2                                                                                 
   LEXCH  = PE                                                                                      
   EATOM  =   103.0669 eV,    7.5752 Ry                                                             
                                                                                                    
   TITEL  = PAW_PBE Si 05Jan2001                                                                    
   LULTRA =        F    use ultrasoft PP ?                                                          
   IUNSCR =        1    unscreen: 0-lin 1-nonlin 2-no                                               
   RPACOR =    1.500    partial core radius                                                         
   POMASS =   28.085; ZVAL   =    4.000    mass and valenz                                          
   RCORE  =    1.900    outmost cutoff radius                                                       
   RWIGS  =    2.480; RWIGS  =    1.312    wigner-seitz radius (au A)                               
   ENMAX  =  245.345; ENMIN  =  184.009 eV                                                          
   ICORE  =        2    local potential                                                             
   LCOR   =        T    correct aug charges                                                         
   LPAW   =        T    paw PP                                                                      
   EAUG   =  322.069                                                                                
   DEXC   =    0.000                                                                                
   RMAX   =    1.950    core radius for proj-oper                                                   
   RAUG   =    1.300    factor for augmentation sphere                                              
   RDEP   =    1.993    radius for radial grids                                                     
   RDEPT  =    1.837    core radius for aug-charge                                                  
                                                                                                    
   Atomic configuration                                                                             
    6 entries                                                                                       
     n  l   j            E        occ.                                                              
     1  0  0.50     -1785.8828   2.0000                                                             
     2  0  0.50      -139.4969   2.0000                                                             
     2  1  1.50       -95.5546   6.0000                                                             
     3  0  0.50       -10.8127   2.0000                                                             
     3  1  0.50        -4.0811   2.0000                                                             
     3  2  1.50        -4.0817   0.0000                                                             
   Description                                                                                      
     l       E           TYP  RCUT    TYP  RCUT                                                     
     0    -10.8127223     23  1.900                                                                 
     0     -7.6451159     23  1.900                                                                 
     1     -4.0811372     23  1.900                                                                 
     1      2.4879257     23  1.900                                                                 
     2     -4.0817478      7  1.900                                                                 
  local pseudopotential read in
  partial core-charges read in
  partial kinetic energy density read in
  atomic valenz-charges read in
  non local Contribution for L=           0  read in
    real space projection operators read in
  non local Contribution for L=           0  read in
    real space projection operators read in
  non local Contribution for L=           1  read in
    real space projection operators read in
  non local Contribution for L=           1  read in
    real space projection operators read in
    PAW grid and wavefunctions read in
 
   number of l-projection  operators is LMAX  =           4
   number of lm-projection operators is LMMAX =           8
 
 -----------------------------------------------------------------------------
|                                                                             |
|               ----> ADVICE to this user running VASP <----                  |
|                                                                             |
|     You have a (more or less) 'small supercell' and for smaller cells       |
|     it is recommended to use the reciprocal-space projection scheme!        |
|     The real-space optimization is not efficient for small cells and it     |
|     is also less accurate ...                                               |
|     Therefore, set LREAL=.FALSE. in the INCAR file.                         |
|                                                                             |
 -----------------------------------------------------------------------------

 Optimization of the real space projectors (new method)

 maximal supplied QI-value         = 19.84
 optimisation between [QCUT,QGAM] = [ 13.29, 26.59] = [ 49.49,197.96] Ry 
 Optimized for a Real-space Cutoff    1.12 Angstroem

   l    n(q)    QCUT    max X(q) W(low)/X(q) W(high)/X(q)  e(spline) 
   0      9    13.294   159.560    0.23E-03    0.88E-04    0.53E-07
   0      9    13.294   115.863    0.22E-03    0.87E-04    0.52E-07
   1      8    13.294    88.339    0.81E-04    0.17E-03    0.12E-06
   1      8    13.294    48.592    0.79E-04    0.17E-03    0.12E-06
  PAW_PBE Si 05Jan2001                  :
 energy of atom  1       EATOM= -103.0669
 kinetic energy error for atom=    0.0003 (will be added to EATOM!!)
 
 
 POSCAR: Si2
  positions in direct lattice
  No initial velocities read in
 exchange correlation table for  LEXCH =        8
   RHO(1)=    0.500       N(1)  =     2000
   RHO(2)=  100.500       N(2)  =     4000
 


--------------------------------------------------------------------------------------------------------


 ion  position               nearest neighbor table
   1  0.250  0.250  0.250-   2 2.37   2 2.37   2 2.37   2 2.37
   2  0.000  0.000  0.000-   1 2.37   1 2.37   1 2.37   1 2.37
 
  LATTYP: Found a face centered cubic cell.
 ALAT       =     5.4687280757
  
  Lattice vectors:
  
 A1 = (   3.3488980000,   0.0000000000,   1.9334870000)
 A2 = (   1.1162990000,   3.1573720000,   1.9334870000)
 A3 = (   0.0000000000,   0.0000000000,   3.8669750000)


Analysis of symmetry for initial positions (statically):
=====================================================================
 Subroutine PRICEL returns:
 Original cell was already a primitive cell.
 

 Routine SETGRP: Setting up the symmetry group for a 
 face centered cubic supercell.


 Subroutine GETGRP returns: Found 48 space group operations
 (whereof 24 operations were pure point group operations)
 out of a pool of 48 trial point group operations.


The static configuration has the point symmetry T_d .
 The point group associated with its full space group is O_h .


Analysis of symmetry for dynamics (positions and initial velocities):
=====================================================================
 Subroutine PRICEL returns:
 Original cell was already a primitive cell.
 

 Routine SETGRP: Setting up the symmetry group for a 
 face centered cubic supercell.


 Subroutine GETGRP returns: Found 48 space group operations
 (whereof 24 operations were pure point group operations)
 out of a pool of 48 trial point group operations.


The dynamic configuration has the point symmetry T_d .
 The point group associated with its full space group is O_h .


 Subroutine INISYM returns: Found 48 space group operations
 (whereof 24 operations are pure point group operations),
 and found     1 'primitive' translations


----------------------------------------------------------------------------------------

                                     Primitive cell                                     

  volume of cell :      40.8883

  direct lattice vectors                    reciprocal lattice vectors
     3.348898000  0.000000000  1.933487000     0.298605691 -0.105573000  0.000000000
     1.116299000  3.157372000  1.933487000     0.000000000  0.316719094  0.000000000
     0.000000000  0.000000000  3.866975000    -0.149302807 -0.105573020  0.258600069

  length of vectors
     3.866974243  3.866974707  3.866975000     0.316719145  0.316719094  0.316719096

  position of ions in fractional coordinates (direct lattice)
     0.250000000  0.250000000  0.250000000
     0.000000000  0.000000000  0.000000000

  ion indices of the primitive-cell ions
   primitive index   ion index
                 1           1
                 2           2

----------------------------------------------------------------------------------------

 
 
 KPOINTS: Hybrid run along symmetry lines         

Read explcit list of k-points.

 Found    180 k-points:

 Following reciprocal coordinates:
            Coordinates               Weight
  0.000000  0.000000  0.000000      0.004630
  0.166667  0.000000  0.000000      0.037037
  0.333333  0.000000  0.000000      0.037037
  0.500000  0.000000  0.000000      0.018519
  0.166667  0.166667  0.000000      0.027778
  0.333333  0.166667  0.000000      0.111111
  0.500000  0.166667  0.000000      0.111111
 -0.333333  0.166667  0.000000      0.111111
 -0.166667  0.166667  0.000000      0.055556
  0.333333  0.333333  0.000000      0.027778
  0.500000  0.333333  0.000000      0.111111
 -0.333333  0.333333  0.000000      0.055556
  0.500000  0.500000  0.000000      0.013889
  0.500000  0.333333  0.166667      0.111111
 -0.333333  0.333333  0.166667      0.111111
 -0.333333  0.500000  0.166667      0.055556
  0.000000  0.000000  0.000000      0.000000
  0.021739  0.000000  0.021739      0.000000
  0.043478  0.000000  0.043478      0.000000
  0.065217  0.000000  0.065217      0.000000
  0.086957  0.000000  0.086957      0.000000
  0.108696  0.000000  0.108696      0.000000
  0.130435  0.000000  0.130435      0.000000
  0.152174  0.000000  0.152174      0.000000
  0.173913  0.000000  0.173913      0.000000
  0.195652  0.000000  0.195652      0.000000
  0.217391  0.000000  0.217391      0.000000
  0.239130  0.000000  0.239130      0.000000
  0.260870  0.000000  0.260870      0.000000
  0.282609  0.000000  0.282609      0.000000
  0.304348  0.000000  0.304348      0.000000
  0.326087  0.000000  0.326087      0.000000
  0.347826  0.000000  0.347826      0.000000
  0.369565  0.000000  0.369565      0.000000
  0.391304  0.000000  0.391304      0.000000
  0.413043  0.000000  0.413043      0.000000
  0.434783  0.000000  0.434783      0.000000
  0.456522  0.000000  0.456522      0.000000
  0.478261  0.000000  0.478261      0.000000
  0.500000  0.000000  0.500000      0.000000
  0.500000  0.000000  0.500000      0.000000
  0.500000  0.020833  0.520833      0.000000
  0.500000  0.041667  0.541667      0.000000
  0.500000  0.062500  0.562500      0.000000
  0.500000  0.083333  0.583333      0.000000
  0.500000  0.104167  0.604167      0.000000
  0.500000  0.125000  0.625000      0.000000
  0.500000  0.145833  0.645833      0.000000
  0.500000  0.166667  0.666667      0.000000
  0.500000  0.187500  0.687500      0.000000
  0.500000  0.208333  0.708333      0.000000
  0.500000  0.229167  0.729167      0.000000
  0.500000  0.250000  0.750000      0.000000
  0.500000  0.250000  0.750000      0.000000
  0.486111  0.263889  0.750000      0.000000
  0.472222  0.277778  0.750000      0.000000
  0.458333  0.291667  0.750000      0.000000
  0.444444  0.305556  0.750000      0.000000
  0.430556  0.319444  0.750000      0.000000
  0.416667  0.333333  0.750000      0.000000
  0.402778  0.347222  0.750000      0.000000
  0.388889  0.361111  0.750000      0.000000
  0.375000  0.375000  0.750000      0.000000
  0.375000  0.375000  0.750000      0.000000
  0.360000  0.360000  0.720000      0.000000
  0.345000  0.345000  0.690000      0.000000
  0.330000  0.330000  0.660000      0.000000
  0.315000  0.315000  0.630000      0.000000
  0.300000  0.300000  0.600000      0.000000
  0.285000  0.285000  0.570000      0.000000
  0.270000  0.270000  0.540000      0.000000
  0.255000  0.255000  0.510000      0.000000
  0.240000  0.240000  0.480000      0.000000
  0.225000  0.225000  0.450000      0.000000
  0.210000  0.210000  0.420000      0.000000
  0.195000  0.195000  0.390000      0.000000
  0.180000  0.180000  0.360000      0.000000
  0.165000  0.165000  0.330000      0.000000
  0.150000  0.150000  0.300000      0.000000
  0.135000  0.135000  0.270000      0.000000
  0.120000  0.120000  0.240000      0.000000
  0.105000  0.105000  0.210000      0.000000
  0.090000  0.090000  0.180000      0.000000
  0.075000  0.075000  0.150000      0.000000
  0.060000  0.060000  0.120000      0.000000
  0.045000  0.045000  0.090000      0.000000
  0.030000  0.030000  0.060000      0.000000
  0.015000  0.015000  0.030000      0.000000
  0.000000  0.000000  0.000000      0.000000
  0.000000  0.000000  0.000000      0.000000
  0.025000  0.025000  0.025000      0.000000
  0.050000  0.050000  0.050000      0.000000
  0.075000  0.075000  0.075000      0.000000
  0.100000  0.100000  0.100000      0.000000
  0.125000  0.125000  0.125000      0.000000
  0.150000  0.150000  0.150000      0.000000
  0.175000  0.175000  0.175000      0.000000
  0.200000  0.200000  0.200000      0.000000
  0.225000  0.225000  0.225000      0.000000
  0.250000  0.250000  0.250000      0.000000
  0.275000  0.275000  0.275000      0.000000
  0.300000  0.300000  0.300000      0.000000
  0.325000  0.325000  0.325000      0.000000
  0.350000  0.350000  0.350000      0.000000
  0.375000  0.375000  0.375000      0.000000
  0.400000  0.400000  0.400000      0.000000
  0.425000  0.425000  0.425000      0.000000
  0.450000  0.450000  0.450000      0.000000
  0.475000  0.475000  0.475000      0.000000
  0.500000  0.500000  0.500000      0.000000
  0.500000  0.500000  0.500000      0.000000
  0.508333  0.483333  0.508333      0.000000
  0.516667  0.466667  0.516667      0.000000
  0.525000  0.450000  0.525000      0.000000
  0.533333  0.433333  0.533333      0.000000
  0.541667  0.416667  0.541667      0.000000
  0.550000  0.400000  0.550000      0.000000
  0.558333  0.383333  0.558333      0.000000
  0.566667  0.366667  0.566667      0.000000
  0.575000  0.350000  0.575000      0.000000
  0.583333  0.333333  0.583333      0.000000
  0.591667  0.316667  0.591667      0.000000
  0.600000  0.300000  0.600000      0.000000
  0.608333  0.283333  0.608333      0.000000
  0.616667  0.266667  0.616667      0.000000
  0.625000  0.250000  0.625000      0.000000
  0.625000  0.250000  0.625000      0.000000
  0.611111  0.250000  0.638889      0.000000
  0.597222  0.250000  0.652778      0.000000
  0.583333  0.250000  0.666667      0.000000
  0.569444  0.250000  0.680556      0.000000
  0.555556  0.250000  0.694444      0.000000
  0.541667  0.250000  0.708333      0.000000
  0.527778  0.250000  0.722222      0.000000
  0.513889  0.250000  0.736111      0.000000
  0.500000  0.250000  0.750000      0.000000
  0.500000  0.250000  0.750000      0.000000
  0.500000  0.264706  0.735294      0.000000
  0.500000  0.279412  0.720588      0.000000
  0.500000  0.294118  0.705882      0.000000
  0.500000  0.308824  0.691176      0.000000
  0.500000  0.323529  0.676471      0.000000
  0.500000  0.338235  0.661765      0.000000
  0.500000  0.352941  0.647059      0.000000
  0.500000  0.367647  0.632353      0.000000
  0.500000  0.382353  0.617647      0.000000
  0.500000  0.397059  0.602941      0.000000
  0.500000  0.411765  0.588235      0.000000
  0.500000  0.426471  0.573529      0.000000
  0.500000  0.441176  0.558824      0.000000
  0.500000  0.455882  0.544118      0.000000
  0.500000  0.470588  0.529412      0.000000
  0.500000  0.485294  0.514706      0.000000
  0.500000  0.500000  0.500000      0.000000
  0.500000  0.500000  0.500000      0.000000
  0.491667  0.491667  0.516667      0.000000
  0.483333  0.483333  0.533333      0.000000
  0.475000  0.475000  0.550000      0.000000
  0.466667  0.466667  0.566667      0.000000
  0.458333  0.458333  0.583333      0.000000
  0.450000  0.450000  0.600000      0.000000
  0.441667  0.441667  0.616667      0.000000
  0.433333  0.433333  0.633333      0.000000
  0.425000  0.425000  0.650000      0.000000
  0.416667  0.416667  0.666667      0.000000
  0.408333  0.408333  0.683333      0.000000
  0.400000  0.400000  0.700000      0.000000
  0.391667  0.391667  0.716667      0.000000
  0.383333  0.383333  0.733333      0.000000
  0.375000  0.375000  0.750000      0.000000
  0.625000  0.250000  0.625000      0.000000
  0.611111  0.222222  0.611111      0.000000
  0.597222  0.194444  0.597222      0.000000
  0.583333  0.166667  0.583333      0.000000
  0.569444  0.138889  0.569444      0.000000
  0.555556  0.111111  0.555556      0.000000
  0.541667  0.083333  0.541667      0.000000
  0.527778  0.055556  0.527778      0.000000
  0.513889  0.027778  0.513889      0.000000
  0.500000  0.000000  0.500000      0.000000

 Following cartesian coordinates:
            Coordinates               Weight
  0.000000  0.000000  0.000000      0.004630
  0.049768 -0.017595  0.000000      0.037037
  0.099535 -0.035191  0.000000      0.037037
  0.149303 -0.052786  0.000000      0.018519
  0.049768  0.035191  0.000000      0.027778
  0.099535  0.017596  0.000000      0.111111
  0.149303  0.000000  0.000000      0.111111
 -0.099535  0.087978  0.000000      0.111111
 -0.049768  0.070382  0.000000      0.055556
  0.099535  0.070382  0.000000      0.027778
  0.149303  0.052787  0.000000      0.111111
 -0.099535  0.140764  0.000000      0.055556
  0.149303  0.105573  0.000000      0.013889
  0.124419  0.035191  0.043100      0.111111
 -0.124419  0.123169  0.043100      0.111111
 -0.124419  0.175955  0.043100      0.055556
  0.000000  0.000000  0.000000      0.000000
  0.003246 -0.004590  0.005622      0.000000
  0.006491 -0.009180  0.011243      0.000000
  0.009737 -0.013770  0.016865      0.000000
  0.012983 -0.018361  0.022487      0.000000
  0.016229 -0.022951  0.028109      0.000000
  0.019474 -0.027541  0.033730      0.000000
  0.022720 -0.032131  0.039352      0.000000
  0.025966 -0.036721  0.044974      0.000000
  0.029211 -0.041311  0.050596      0.000000
  0.032457 -0.045901  0.056217      0.000000
  0.035703 -0.050491  0.061839      0.000000
  0.038949 -0.055082  0.067461      0.000000
  0.042194 -0.059672  0.073083      0.000000
  0.045440 -0.064262  0.078704      0.000000
  0.048686 -0.068852  0.084326      0.000000
  0.051931 -0.073442  0.089948      0.000000
  0.055177 -0.078032  0.095570      0.000000
  0.058423 -0.082622  0.101191      0.000000
  0.061669 -0.087212  0.106813      0.000000
  0.064914 -0.091803  0.112435      0.000000
  0.068160 -0.096393  0.118057      0.000000
  0.071406 -0.100983  0.123678      0.000000
  0.074651 -0.105573  0.129300      0.000000
  0.074651 -0.105573  0.129300      0.000000
  0.071541 -0.101174  0.134688      0.000000
  0.068430 -0.096775  0.140075      0.000000
  0.065320 -0.092376  0.145463      0.000000
  0.062210 -0.087978  0.150850      0.000000
  0.059099 -0.083579  0.156238      0.000000
  0.055989 -0.079180  0.161625      0.000000
  0.052878 -0.074781  0.167013      0.000000
  0.049768 -0.070382  0.172400      0.000000
  0.046657 -0.065983  0.177788      0.000000
  0.043547 -0.061584  0.183175      0.000000
  0.040436 -0.057185  0.188563      0.000000
  0.037326 -0.052786  0.193950      0.000000
  0.037326 -0.052786  0.193950      0.000000
  0.033178 -0.046921  0.193950      0.000000
  0.029031 -0.041056  0.193950      0.000000
  0.024884 -0.035191  0.193950      0.000000
  0.020737 -0.029326  0.193950      0.000000
  0.016589 -0.023461  0.193950      0.000000
  0.012442 -0.017595  0.193950      0.000000
  0.008295 -0.011730  0.193950      0.000000
  0.004147 -0.005865  0.193950      0.000000
  0.000000  0.000000  0.193950      0.000000
  0.000000  0.000000  0.193950      0.000000
  0.000000  0.000000  0.186192      0.000000
  0.000000  0.000000  0.178434      0.000000
  0.000000  0.000000  0.170676      0.000000
  0.000000  0.000000  0.162918      0.000000
  0.000000  0.000000  0.155160      0.000000
  0.000000  0.000000  0.147402      0.000000
  0.000000  0.000000  0.139644      0.000000
  0.000000  0.000000  0.131886      0.000000
  0.000000  0.000000  0.124128      0.000000
  0.000000  0.000000  0.116370      0.000000
  0.000000  0.000000  0.108612      0.000000
  0.000000  0.000000  0.100854      0.000000
  0.000000  0.000000  0.093096      0.000000
  0.000000  0.000000  0.085338      0.000000
  0.000000  0.000000  0.077580      0.000000
  0.000000  0.000000  0.069822      0.000000
  0.000000  0.000000  0.062064      0.000000
  0.000000  0.000000  0.054306      0.000000
  0.000000  0.000000  0.046548      0.000000
  0.000000  0.000000  0.038790      0.000000
  0.000000  0.000000  0.031032      0.000000
  0.000000  0.000000  0.023274      0.000000
  0.000000  0.000000  0.015516      0.000000
  0.000000  0.000000  0.007758      0.000000
  0.000000  0.000000  0.000000      0.000000
  0.000000  0.000000  0.000000      0.000000
  0.003733  0.002639  0.006465      0.000000
  0.007465  0.005279  0.012930      0.000000
  0.011198  0.007918  0.019395      0.000000
  0.014930  0.010557  0.025860      0.000000
  0.018663  0.013197  0.032325      0.000000
  0.022395  0.015836  0.038790      0.000000
  0.026128  0.018475  0.045255      0.000000
  0.029861  0.021115  0.051720      0.000000
  0.033593  0.023754  0.058185      0.000000
  0.037326  0.026393  0.064650      0.000000
  0.041058  0.029033  0.071115      0.000000
  0.044791  0.031672  0.077580      0.000000
  0.048523  0.034311  0.084045      0.000000
  0.052256  0.036951  0.090510      0.000000
  0.055989  0.039590  0.096975      0.000000
  0.059721  0.042229  0.103440      0.000000
  0.063454  0.044869  0.109905      0.000000
  0.067186  0.047508  0.116370      0.000000
  0.070919  0.050147  0.122835      0.000000
  0.074651  0.052787  0.129300      0.000000
  0.074651  0.052787  0.129300      0.000000
  0.075896  0.045748  0.131455      0.000000
  0.077140  0.038710  0.133610      0.000000
  0.078384  0.031672  0.135765      0.000000
  0.079628  0.024634  0.137920      0.000000
  0.080872  0.017596  0.140075      0.000000
  0.082117  0.010557  0.142230      0.000000
  0.083361  0.003519  0.144385      0.000000
  0.084605 -0.003519  0.146540      0.000000
  0.085849 -0.010557  0.148695      0.000000
  0.087093 -0.017595  0.150850      0.000000
  0.088338 -0.024634  0.153005      0.000000
  0.089582 -0.031672  0.155160      0.000000
  0.090826 -0.038710  0.157315      0.000000
  0.092070 -0.045748  0.159470      0.000000
  0.093314 -0.052786  0.161625      0.000000
  0.093314 -0.052786  0.161625      0.000000
  0.087093 -0.052786  0.165217      0.000000
  0.080872 -0.052786  0.168808      0.000000
  0.074651 -0.052786  0.172400      0.000000
  0.068430 -0.052786  0.175992      0.000000
  0.062210 -0.052786  0.179583      0.000000
  0.055989 -0.052786  0.183175      0.000000
  0.049768 -0.052786  0.186767      0.000000
  0.043547 -0.052786  0.190358      0.000000
  0.037326 -0.052786  0.193950      0.000000
  0.037326 -0.052786  0.193950      0.000000
  0.039521 -0.046576  0.190147      0.000000
  0.041717 -0.040366  0.186344      0.000000
  0.043913 -0.034156  0.182541      0.000000
  0.046108 -0.027946  0.178738      0.000000
  0.048304 -0.021736  0.174935      0.000000
  0.050500 -0.015525  0.171132      0.000000
  0.052695 -0.009315  0.167329      0.000000
  0.054891 -0.003105  0.163527      0.000000
  0.057086  0.003105  0.159724      0.000000
  0.059282  0.009315  0.155921      0.000000
  0.061478  0.015525  0.152118      0.000000
  0.063673  0.021736  0.148315      0.000000
  0.065869  0.027946  0.144512      0.000000
  0.068065  0.034156  0.140709      0.000000
  0.070260  0.040366  0.136906      0.000000
  0.072456  0.046576  0.133103      0.000000
  0.074651  0.052787  0.129300      0.000000
  0.074651  0.052787  0.129300      0.000000
  0.069675  0.049267  0.133610      0.000000
  0.064698  0.045748  0.137920      0.000000
  0.059721  0.042229  0.142230      0.000000
  0.054744  0.038710  0.146540      0.000000
  0.049768  0.035191  0.150850      0.000000
  0.044791  0.031672  0.155160      0.000000
  0.039814  0.028153  0.159470      0.000000
  0.034837  0.024634  0.163780      0.000000
  0.029861  0.021115  0.168090      0.000000
  0.024884  0.017596  0.172400      0.000000
  0.019907  0.014076  0.176710      0.000000
  0.014930  0.010557  0.181020      0.000000
  0.009954  0.007038  0.185330      0.000000
  0.004977  0.003519  0.189640      0.000000
  0.000000  0.000000  0.193950      0.000000
  0.093314 -0.052786  0.161625      0.000000
  0.091241 -0.058652  0.158033      0.000000
  0.089167 -0.064517  0.154442      0.000000
  0.087093 -0.070382  0.150850      0.000000
  0.085020 -0.076247  0.147258      0.000000
  0.082946 -0.082112  0.143667      0.000000
  0.080872 -0.087978  0.140075      0.000000
  0.078799 -0.093843  0.136483      0.000000
  0.076725 -0.099708  0.132892      0.000000
  0.074651 -0.105573  0.129300      0.000000
 
 
 Subroutine IBZKPT_HF returns following result:
 ==============================================
 
 Found    380 k-points in 1st BZ
 the following    380 k-points will be used (e.g. in the exchange kernel)
 Following reciprocal coordinates:   # in IRBZ
  0.000000  0.000000  0.000000    0.00462963   1 t-inv F
  0.166667  0.000000  0.000000    0.00462963   2 t-inv F
  0.333333  0.000000  0.000000    0.00462963   3 t-inv F
  0.500000  0.000000  0.000000    0.00462963   4 t-inv F
  0.166667  0.166667  0.000000    0.00462963   5 t-inv F
  0.333333  0.166667  0.000000    0.00462963   6 t-inv F
  0.500000  0.166667  0.000000    0.00462963   7 t-inv F
 -0.333333  0.166667  0.000000    0.00462963   8 t-inv F
 -0.166667  0.166667  0.000000    0.00462963   9 t-inv F
  0.333333  0.333333  0.000000    0.00462963  10 t-inv F
  0.500000  0.333333  0.000000    0.00462963  11 t-inv F
 -0.333333  0.333333  0.000000    0.00462963  12 t-inv F
  0.500000  0.500000  0.000000    0.00462963  13 t-inv F
  0.500000  0.333333  0.166667    0.00462963  14 t-inv F
 -0.333333  0.333333  0.166667    0.00462963  15 t-inv F
 -0.333333  0.500000  0.166667    0.00462963  16 t-inv F
  0.000000  0.000000  0.000000    0.00000000  17 t-inv F
  0.021739  0.000000  0.021739    0.00000000  18 t-inv F
  0.043478  0.000000  0.043478    0.00000000  19 t-inv F
  0.065217  0.000000  0.065217    0.00000000  20 t-inv F
  0.086957  0.000000  0.086957    0.00000000  21 t-inv F
  0.108696  0.000000  0.108696    0.00000000  22 t-inv F
  0.130435  0.000000  0.130435    0.00000000  23 t-inv F
  0.152174  0.000000  0.152174    0.00000000  24 t-inv F
  0.173913  0.000000  0.173913    0.00000000  25 t-inv F
  0.195652  0.000000  0.195652    0.00000000  26 t-inv F
  0.217391  0.000000  0.217391    0.00000000  27 t-inv F
  0.239130  0.000000  0.239130    0.00000000  28 t-inv F
  0.260870  0.000000  0.260870    0.00000000  29 t-inv F
  0.282609  0.000000  0.282609    0.00000000  30 t-inv F
  0.304348  0.000000  0.304348    0.00000000  31 t-inv F
  0.326087  0.000000  0.326087    0.00000000  32 t-inv F
  0.347826  0.000000  0.347826    0.00000000  33 t-inv F
  0.369565  0.000000  0.369565    0.00000000  34 t-inv F
  0.391304  0.000000  0.391304    0.00000000  35 t-inv F
  0.413043  0.000000  0.413043    0.00000000  36 t-inv F
  0.434783  0.000000  0.434783    0.00000000  37 t-inv F
  0.456522  0.000000  0.456522    0.00000000  38 t-inv F
  0.478261  0.000000  0.478261    0.00000000  39 t-inv F
  0.500000  0.000000  0.500000    0.00000000  40 t-inv F
  0.500000  0.000000  0.500000    0.00000000  41 t-inv F
  0.500000  0.020833  0.520833    0.00000000  42 t-inv F
  0.500000  0.041667  0.541667    0.00000000  43 t-inv F
  0.500000  0.062500  0.562500    0.00000000  44 t-inv F
  0.500000  0.083333  0.583333    0.00000000  45 t-inv F
  0.500000  0.104167  0.604167    0.00000000  46 t-inv F
  0.500000  0.125000  0.625000    0.00000000  47 t-inv F
  0.500000  0.145833  0.645833    0.00000000  48 t-inv F
  0.500000  0.166667  0.666667    0.00000000  49 t-inv F
  0.500000  0.187500  0.687500    0.00000000  50 t-inv F
  0.500000  0.208333  0.708333    0.00000000  51 t-inv F
  0.500000  0.229167  0.729167    0.00000000  52 t-inv F
  0.500000  0.250000  0.750000    0.00000000  53 t-inv F
  0.500000  0.250000  0.750000    0.00000000  54 t-inv F
  0.486111  0.263889  0.750000    0.00000000  55 t-inv F
  0.472222  0.277778  0.750000    0.00000000  56 t-inv F
  0.458333  0.291667  0.750000    0.00000000  57 t-inv F
  0.444444  0.305556  0.750000    0.00000000  58 t-inv F
  0.430556  0.319444  0.750000    0.00000000  59 t-inv F
  0.416667  0.333333  0.750000    0.00000000  60 t-inv F
  0.402778  0.347222  0.750000    0.00000000  61 t-inv F
  0.388889  0.361111  0.750000    0.00000000  62 t-inv F
  0.375000  0.375000  0.750000    0.00000000  63 t-inv F
  0.375000  0.375000  0.750000    0.00000000  64 t-inv F
  0.360000  0.360000  0.720000    0.00000000  65 t-inv F
  0.345000  0.345000  0.690000    0.00000000  66 t-inv F
  0.330000  0.330000  0.660000    0.00000000  67 t-inv F
  0.315000  0.315000  0.630000    0.00000000  68 t-inv F
  0.300000  0.300000  0.600000    0.00000000  69 t-inv F
  0.285000  0.285000  0.570000    0.00000000  70 t-inv F
  0.270000  0.270000  0.540000    0.00000000  71 t-inv F
  0.255000  0.255000  0.510000    0.00000000  72 t-inv F
  0.240000  0.240000  0.480000    0.00000000  73 t-inv F
  0.225000  0.225000  0.450000    0.00000000  74 t-inv F
  0.210000  0.210000  0.420000    0.00000000  75 t-inv F
  0.195000  0.195000  0.390000    0.00000000  76 t-inv F
  0.180000  0.180000  0.360000    0.00000000  77 t-inv F
  0.165000  0.165000  0.330000    0.00000000  78 t-inv F
  0.150000  0.150000  0.300000    0.00000000  79 t-inv F
  0.135000  0.135000  0.270000    0.00000000  80 t-inv F
  0.120000  0.120000  0.240000    0.00000000  81 t-inv F
  0.105000  0.105000  0.210000    0.00000000  82 t-inv F
  0.090000  0.090000  0.180000    0.00000000  83 t-inv F
  0.075000  0.075000  0.150000    0.00000000  84 t-inv F
  0.060000  0.060000  0.120000    0.00000000  85 t-inv F
  0.045000  0.045000  0.090000    0.00000000  86 t-inv F
  0.030000  0.030000  0.060000    0.00000000  87 t-inv F
  0.015000  0.015000  0.030000    0.00000000  88 t-inv F
  0.000000  0.000000  0.000000    0.00000000  89 t-inv F
  0.000000  0.000000  0.000000    0.00000000  90 t-inv F
  0.025000  0.025000  0.025000    0.00000000  91 t-inv F
  0.050000  0.050000  0.050000    0.00000000  92 t-inv F
  0.075000  0.075000  0.075000    0.00000000  93 t-inv F
  0.100000  0.100000  0.100000    0.00000000  94 t-inv F
  0.125000  0.125000  0.125000    0.00000000  95 t-inv F
  0.150000  0.150000  0.150000    0.00000000  96 t-inv F
  0.175000  0.175000  0.175000    0.00000000  97 t-inv F
  0.200000  0.200000  0.200000    0.00000000  98 t-inv F
  0.225000  0.225000  0.225000    0.00000000  99 t-inv F
  0.250000  0.250000  0.250000    0.00000000 100 t-inv F
  0.275000  0.275000  0.275000    0.00000000 101 t-inv F
  0.300000  0.300000  0.300000    0.00000000 102 t-inv F
  0.325000  0.325000  0.325000    0.00000000 103 t-inv F
  0.350000  0.350000  0.350000    0.00000000 104 t-inv F
  0.375000  0.375000  0.375000    0.00000000 105 t-inv F
  0.400000  0.400000  0.400000    0.00000000 106 t-inv F
  0.425000  0.425000  0.425000    0.00000000 107 t-inv F
  0.450000  0.450000  0.450000    0.00000000 108 t-inv F
  0.475000  0.475000  0.475000    0.00000000 109 t-inv F
  0.500000  0.500000  0.500000    0.00000000 110 t-inv F
  0.500000  0.500000  0.500000    0.00000000 111 t-inv F
  0.508333  0.483333  0.508333    0.00000000 112 t-inv F
  0.516667  0.466667  0.516667    0.00000000 113 t-inv F
  0.525000  0.450000  0.525000    0.00000000 114 t-inv F
  0.533333  0.433333  0.533333    0.00000000 115 t-inv F
  0.541667  0.416667  0.541667    0.00000000 116 t-inv F
  0.550000  0.400000  0.550000    0.00000000 117 t-inv F
  0.558333  0.383333  0.558333    0.00000000 118 t-inv F
  0.566667  0.366667  0.566667    0.00000000 119 t-inv F
  0.575000  0.350000  0.575000    0.00000000 120 t-inv F
  0.583333  0.333333  0.583333    0.00000000 121 t-inv F
  0.591667  0.316667  0.591667    0.00000000 122 t-inv F
  0.600000  0.300000  0.600000    0.00000000 123 t-inv F
  0.608333  0.283333  0.608333    0.00000000 124 t-inv F
  0.616667  0.266667  0.616667    0.00000000 125 t-inv F
  0.625000  0.250000  0.625000    0.00000000 126 t-inv F
  0.625000  0.250000  0.625000    0.00000000 127 t-inv F
  0.611111  0.250000  0.638889    0.00000000 128 t-inv F
  0.597222  0.250000  0.652778    0.00000000 129 t-inv F
  0.583333  0.250000  0.666667    0.00000000 130 t-inv F
  0.569444  0.250000  0.680556    0.00000000 131 t-inv F
  0.555556  0.250000  0.694444    0.00000000 132 t-inv F
  0.541667  0.250000  0.708333    0.00000000 133 t-inv F
  0.527778  0.250000  0.722222    0.00000000 134 t-inv F
  0.513889  0.250000  0.736111    0.00000000 135 t-inv F
  0.500000  0.250000  0.750000    0.00000000 136 t-inv F
  0.500000  0.250000  0.750000    0.00000000 137 t-inv F
  0.500000  0.264706  0.735294    0.00000000 138 t-inv F
  0.500000  0.279412  0.720588    0.00000000 139 t-inv F
  0.500000  0.294118  0.705882    0.00000000 140 t-inv F
  0.500000  0.308824  0.691176    0.00000000 141 t-inv F
  0.500000  0.323529  0.676471    0.00000000 142 t-inv F
  0.500000  0.338235  0.661765    0.00000000 143 t-inv F
  0.500000  0.352941  0.647059    0.00000000 144 t-inv F
  0.500000  0.367647  0.632353    0.00000000 145 t-inv F
  0.500000  0.382353  0.617647    0.00000000 146 t-inv F
  0.500000  0.397059  0.602941    0.00000000 147 t-inv F
  0.500000  0.411765  0.588235    0.00000000 148 t-inv F
  0.500000  0.426471  0.573529    0.00000000 149 t-inv F
  0.500000  0.441176  0.558824    0.00000000 150 t-inv F
  0.500000  0.455882  0.544118    0.00000000 151 t-inv F
  0.500000  0.470588  0.529412    0.00000000 152 t-inv F
  0.500000  0.485294  0.514706    0.00000000 153 t-inv F
  0.500000  0.500000  0.500000    0.00000000 154 t-inv F
  0.500000  0.500000  0.500000    0.00000000 155 t-inv F
  0.491667  0.491667  0.516667    0.00000000 156 t-inv F
  0.483333  0.483333  0.533333    0.00000000 157 t-inv F
  0.475000  0.475000  0.550000    0.00000000 158 t-inv F
  0.466667  0.466667  0.566667    0.00000000 159 t-inv F
  0.458333  0.458333  0.583333    0.00000000 160 t-inv F
  0.450000  0.450000  0.600000    0.00000000 161 t-inv F
  0.441667  0.441667  0.616667    0.00000000 162 t-inv F
  0.433333  0.433333  0.633333    0.00000000 163 t-inv F
  0.425000  0.425000  0.650000    0.00000000 164 t-inv F
  0.416667  0.416667  0.666667    0.00000000 165 t-inv F
  0.408333  0.408333  0.683333    0.00000000 166 t-inv F
  0.400000  0.400000  0.700000    0.00000000 167 t-inv F
  0.391667  0.391667  0.716667    0.00000000 168 t-inv F
  0.383333  0.383333  0.733333    0.00000000 169 t-inv F
  0.375000  0.375000  0.750000    0.00000000 170 t-inv F
  0.625000  0.250000  0.625000    0.00000000 171 t-inv F
  0.611111  0.222222  0.611111    0.00000000 172 t-inv F
  0.597222  0.194444  0.597222    0.00000000 173 t-inv F
  0.583333  0.166667  0.583333    0.00000000 174 t-inv F
  0.569444  0.138889  0.569444    0.00000000 175 t-inv F
  0.555556  0.111111  0.555556    0.00000000 176 t-inv F
  0.541667  0.083333  0.541667    0.00000000 177 t-inv F
  0.527778  0.055556  0.527778    0.00000000 178 t-inv F
  0.513889  0.027778  0.513889    0.00000000 179 t-inv F
  0.500000  0.000000  0.500000    0.00000000 180 t-inv F
  0.000000  0.166667  0.000000    0.00462963   2 t-inv F
  0.000000  0.000000  0.166667    0.00462963   2 t-inv F
 -0.166667 -0.166667 -0.166667    0.00462963   2 t-inv F
 -0.166667  0.000000  0.000000    0.00462963   2 t-inv F
  0.000000 -0.166667  0.000000    0.00462963   2 t-inv F
  0.000000  0.000000 -0.166667    0.00462963   2 t-inv F
  0.166667  0.166667  0.166667    0.00462963   2 t-inv F
  0.000000  0.333333  0.000000    0.00462963   3 t-inv F
  0.000000  0.000000  0.333333    0.00462963   3 t-inv F
 -0.333333 -0.333333 -0.333333    0.00462963   3 t-inv F
 -0.333333  0.000000  0.000000    0.00462963   3 t-inv F
  0.000000 -0.333333  0.000000    0.00462963   3 t-inv F
  0.000000  0.000000 -0.333333    0.00462963   3 t-inv F
  0.333333  0.333333  0.333333    0.00462963   3 t-inv F
  0.000000  0.500000  0.000000    0.00462963   4 t-inv F
  0.000000  0.000000  0.500000    0.00462963   4 t-inv F
 -0.500000 -0.500000 -0.500000    0.00462963   4 t-inv F
  0.000000  0.166667  0.166667    0.00462963   5 t-inv F
  0.166667  0.000000  0.166667    0.00462963   5 t-inv F
 -0.166667 -0.166667  0.000000    0.00462963   5 t-inv F
 -0.166667  0.000000 -0.166667    0.00462963   5 t-inv F
  0.000000 -0.166667 -0.166667    0.00462963   5 t-inv F
  0.000000  0.333333  0.166667    0.00462963   6 t-inv F
  0.166667  0.000000  0.333333    0.00462963   6 t-inv F
 -0.166667 -0.166667  0.166667    0.00462963   6 t-inv F
 -0.333333 -0.166667 -0.333333    0.00462963   6 t-inv F
  0.166667  0.333333  0.000000    0.00462963   6 t-inv F
  0.166667 -0.166667 -0.166667    0.00462963   6 t-inv F
 -0.333333 -0.333333 -0.166667    0.00462963   6 t-inv F
  0.000000  0.166667  0.333333    0.00462963   6 t-inv F
 -0.166667  0.166667 -0.166667    0.00462963   6 t-inv F
 -0.166667 -0.333333 -0.333333    0.00462963   6 t-inv F
  0.333333  0.000000  0.166667    0.00462963   6 t-inv F
 -0.333333 -0.166667  0.000000    0.00462963   6 t-inv F
  0.000000 -0.333333 -0.166667    0.00462963   6 t-inv F
 -0.166667  0.000000 -0.333333    0.00462963   6 t-inv F
  0.166667  0.166667 -0.166667    0.00462963   6 t-inv F
  0.333333  0.166667  0.333333    0.00462963   6 t-inv F
 -0.166667 -0.333333  0.000000    0.00462963   6 t-inv F
 -0.166667  0.166667  0.166667    0.00462963   6 t-inv F
  0.333333  0.333333  0.166667    0.00462963   6 t-inv F
  0.000000 -0.166667 -0.333333    0.00462963   6 t-inv F
  0.166667 -0.166667  0.166667    0.00462963   6 t-inv F
  0.166667  0.333333  0.333333    0.00462963   6 t-inv F
 -0.333333  0.000000 -0.166667    0.00462963   6 t-inv F
  0.000000  0.500000  0.166667    0.00462963   7 t-inv F
  0.166667  0.000000  0.500000    0.00462963   7 t-inv F
 -0.166667 -0.166667  0.333333    0.00462963   7 t-inv F
 -0.500000 -0.333333 -0.500000    0.00462963   7 t-inv F
  0.166667  0.500000  0.000000    0.00462963   7 t-inv F
  0.333333 -0.166667 -0.166667    0.00462963   7 t-inv F
 -0.500000 -0.500000 -0.333333    0.00462963   7 t-inv F
  0.000000  0.166667  0.500000    0.00462963   7 t-inv F
 -0.166667  0.333333 -0.166667    0.00462963   7 t-inv F
 -0.333333 -0.500000 -0.500000    0.00462963   7 t-inv F
  0.500000  0.000000  0.166667    0.00462963   7 t-inv F
 -0.500000 -0.166667  0.000000    0.00462963   7 t-inv F
  0.000000 -0.500000 -0.166667    0.00462963   7 t-inv F
 -0.166667  0.000000 -0.500000    0.00462963   7 t-inv F
  0.166667  0.166667 -0.333333    0.00462963   7 t-inv F
  0.500000  0.333333  0.500000    0.00462963   7 t-inv F
 -0.166667 -0.500000  0.000000    0.00462963   7 t-inv F
 -0.333333  0.166667  0.166667    0.00462963   7 t-inv F
  0.500000  0.500000  0.333333    0.00462963   7 t-inv F
  0.000000 -0.166667 -0.500000    0.00462963   7 t-inv F
  0.166667 -0.333333  0.166667    0.00462963   7 t-inv F
  0.333333  0.500000  0.500000    0.00462963   7 t-inv F
 -0.500000  0.000000 -0.166667    0.00462963   7 t-inv F
  0.000000 -0.333333  0.166667    0.00462963   8 t-inv F
  0.166667  0.000000 -0.333333    0.00462963   8 t-inv F
 -0.166667 -0.166667 -0.500000    0.00462963   8 t-inv F
  0.333333  0.500000  0.333333    0.00462963   8 t-inv F
  0.166667 -0.333333  0.000000    0.00462963   8 t-inv F
 -0.500000 -0.166667 -0.166667    0.00462963   8 t-inv F
  0.333333  0.333333  0.500000    0.00462963   8 t-inv F
  0.000000  0.166667 -0.333333    0.00462963   8 t-inv F
 -0.166667 -0.500000 -0.166667    0.00462963   8 t-inv F
  0.500000  0.333333  0.333333    0.00462963   8 t-inv F
 -0.333333  0.000000  0.166667    0.00462963   8 t-inv F
  0.333333 -0.166667  0.000000    0.00462963   8 t-inv F
  0.000000  0.333333 -0.166667    0.00462963   8 t-inv F
 -0.166667  0.000000  0.333333    0.00462963   8 t-inv F
  0.166667  0.166667  0.500000    0.00462963   8 t-inv F
 -0.333333 -0.500000 -0.333333    0.00462963   8 t-inv F
 -0.166667  0.333333  0.000000    0.00462963   8 t-inv F
  0.500000  0.166667  0.166667    0.00462963   8 t-inv F
 -0.333333 -0.333333 -0.500000    0.00462963   8 t-inv F
  0.000000 -0.166667  0.333333    0.00462963   8 t-inv F
  0.166667  0.500000  0.166667    0.00462963   8 t-inv F
 -0.500000 -0.333333 -0.333333    0.00462963   8 t-inv F
  0.333333  0.000000 -0.166667    0.00462963   8 t-inv F
  0.000000 -0.166667  0.166667    0.00462963   9 t-inv F
  0.166667  0.000000 -0.166667    0.00462963   9 t-inv F
 -0.166667 -0.166667 -0.333333    0.00462963   9 t-inv F
  0.166667  0.333333  0.166667    0.00462963   9 t-inv F
  0.166667 -0.166667  0.000000    0.00462963   9 t-inv F
 -0.333333 -0.166667 -0.166667    0.00462963   9 t-inv F
  0.166667  0.166667  0.333333    0.00462963   9 t-inv F
  0.000000  0.166667 -0.166667    0.00462963   9 t-inv F
 -0.166667 -0.333333 -0.166667    0.00462963   9 t-inv F
  0.333333  0.166667  0.166667    0.00462963   9 t-inv F
 -0.166667  0.000000  0.166667    0.00462963   9 t-inv F
  0.000000  0.333333  0.333333    0.00462963  10 t-inv F
  0.333333  0.000000  0.333333    0.00462963  10 t-inv F
 -0.333333 -0.333333  0.000000    0.00462963  10 t-inv F
 -0.333333  0.000000 -0.333333    0.00462963  10 t-inv F
  0.000000 -0.333333 -0.333333    0.00462963  10 t-inv F
  0.000000  0.500000  0.333333    0.00462963  11 t-inv F
  0.333333  0.000000  0.500000    0.00462963  11 t-inv F
 -0.333333 -0.333333  0.166667    0.00462963  11 t-inv F
 -0.500000 -0.166667 -0.500000    0.00462963  11 t-inv F
  0.333333  0.500000  0.000000    0.00462963  11 t-inv F
  0.166667 -0.333333 -0.333333    0.00462963  11 t-inv F
 -0.500000 -0.500000 -0.166667    0.00462963  11 t-inv F
  0.000000  0.333333  0.500000    0.00462963  11 t-inv F
 -0.333333  0.166667 -0.333333    0.00462963  11 t-inv F
 -0.166667 -0.500000 -0.500000    0.00462963  11 t-inv F
  0.500000  0.000000  0.333333    0.00462963  11 t-inv F
 -0.500000 -0.333333  0.000000    0.00462963  11 t-inv F
  0.000000 -0.500000 -0.333333    0.00462963  11 t-inv F
 -0.333333  0.000000 -0.500000    0.00462963  11 t-inv F
  0.333333  0.333333 -0.166667    0.00462963  11 t-inv F
  0.500000  0.166667  0.500000    0.00462963  11 t-inv F
 -0.333333 -0.500000  0.000000    0.00462963  11 t-inv F
 -0.166667  0.333333  0.333333    0.00462963  11 t-inv F
  0.500000  0.500000  0.166667    0.00462963  11 t-inv F
  0.000000 -0.333333 -0.500000    0.00462963  11 t-inv F
  0.333333 -0.166667  0.333333    0.00462963  11 t-inv F
  0.166667  0.500000  0.500000    0.00462963  11 t-inv F
 -0.500000  0.000000 -0.333333    0.00462963  11 t-inv F
  0.000000 -0.333333  0.333333    0.00462963  12 t-inv F
  0.333333  0.000000 -0.333333    0.00462963  12 t-inv F
 -0.333333 -0.333333 -0.666667    0.00462963  12 t-inv F
  0.333333  0.666667  0.333333    0.00462963  12 t-inv F
  0.333333 -0.333333  0.000000    0.00462963  12 t-inv F
 -0.666667 -0.333333 -0.333333    0.00462963  12 t-inv F
  0.333333  0.333333  0.666667    0.00462963  12 t-inv F
  0.000000  0.333333 -0.333333    0.00462963  12 t-inv F
 -0.333333 -0.666667 -0.333333    0.00462963  12 t-inv F
  0.666667  0.333333  0.333333    0.00462963  12 t-inv F
 -0.333333  0.000000  0.333333    0.00462963  12 t-inv F
  0.000000  0.500000  0.500000    0.00462963  13 t-inv F
  0.500000  0.000000  0.500000    0.00462963  13 t-inv F
  0.166667  0.500000  0.333333    0.00462963  14 t-inv F
  0.333333  0.166667  0.500000    0.00462963  14 t-inv F
 -0.333333 -0.166667  0.166667    0.00462963  14 t-inv F
 -0.500000 -0.166667 -0.333333    0.00462963  14 t-inv F
 -0.166667  0.333333  0.166667    0.00462963  14 t-inv F
  0.166667  0.333333 -0.166667    0.00462963  14 t-inv F
  0.166667 -0.166667 -0.333333    0.00462963  14 t-inv F
 -0.333333 -0.166667 -0.500000    0.00462963  14 t-inv F
 -0.333333 -0.500000 -0.166667    0.00462963  14 t-inv F
  0.166667 -0.166667  0.333333    0.00462963  14 t-inv F
  0.166667 -0.333333 -0.166667    0.00462963  14 t-inv F
 -0.166667  0.166667  0.333333    0.00462963  14 t-inv F
 -0.333333  0.166667 -0.166667    0.00462963  14 t-inv F
 -0.500000 -0.333333 -0.166667    0.00462963  14 t-inv F
 -0.166667 -0.333333 -0.500000    0.00462963  14 t-inv F
  0.333333  0.166667 -0.166667    0.00462963  14 t-inv F
 -0.166667  0.166667 -0.333333    0.00462963  14 t-inv F
  0.333333 -0.166667  0.166667    0.00462963  14 t-inv F
 -0.166667 -0.333333  0.166667    0.00462963  14 t-inv F
 -0.166667 -0.500000 -0.333333    0.00462963  14 t-inv F
  0.500000  0.166667  0.333333    0.00462963  14 t-inv F
  0.333333  0.500000  0.166667    0.00462963  14 t-inv F
  0.166667  0.333333  0.500000    0.00462963  14 t-inv F
  0.166667 -0.333333  0.333333    0.00462963  15 t-inv F
  0.333333  0.166667 -0.333333    0.00462963  15 t-inv F
 -0.333333 -0.166667 -0.666667    0.00462963  15 t-inv F
  0.333333  0.666667  0.500000    0.00462963  15 t-inv F
 -0.166667 -0.500000  0.166667    0.00462963  15 t-inv F
  0.166667 -0.500000 -0.166667    0.00462963  15 t-inv F
 -0.666667 -0.166667 -0.333333    0.00462963  15 t-inv F
  0.500000  0.666667  0.333333    0.00462963  15 t-inv F
  0.500000  0.333333  0.666667    0.00462963  15 t-inv F
  0.166667 -0.166667 -0.500000    0.00462963  15 t-inv F
 -0.666667 -0.333333 -0.166667    0.00462963  15 t-inv F
 -0.166667  0.166667 -0.500000    0.00462963  15 t-inv F
 -0.333333 -0.666667 -0.166667    0.00462963  15 t-inv F
  0.333333  0.500000  0.666667    0.00462963  15 t-inv F
  0.666667  0.500000  0.333333    0.00462963  15 t-inv F
 -0.500000  0.166667 -0.166667    0.00462963  15 t-inv F
 -0.166667 -0.666667 -0.333333    0.00462963  15 t-inv F
 -0.500000 -0.166667  0.166667    0.00462963  15 t-inv F
 -0.166667 -0.333333 -0.666667    0.00462963  15 t-inv F
  0.666667  0.333333  0.500000    0.00462963  15 t-inv F
 -0.333333  0.166667  0.333333    0.00462963  15 t-inv F
  0.333333 -0.333333  0.166667    0.00462963  15 t-inv F
  0.166667  0.333333 -0.333333    0.00462963  15 t-inv F
  0.166667 -0.333333  0.500000    0.00462963  16 t-inv F
  0.500000  0.166667 -0.333333    0.00462963  16 t-inv F
 -0.500000 -0.333333 -0.833333    0.00462963  16 t-inv F
  0.333333  0.833333  0.500000    0.00462963  16 t-inv F
 -0.166667 -0.500000  0.333333    0.00462963  16 t-inv F
  0.333333 -0.500000 -0.166667    0.00462963  16 t-inv F
  0.500000  0.833333  0.333333    0.00462963  16 t-inv F
  0.500000  0.333333  0.833333    0.00462963  16 t-inv F
 -0.833333 -0.500000 -0.333333    0.00462963  16 t-inv F
 -0.166667  0.333333 -0.500000    0.00462963  16 t-inv F
 -0.333333 -0.833333 -0.500000    0.00462963  16 t-inv F


--------------------------------------------------------------------------------------------------------




 Dimension of arrays:
   k-points           NKPTS =    180   k-points in BZ     NKDIM =    380   number of bands    NBANDS=     11
   number of dos      NEDOS =    301   number of ions     NIONS =      2
   non local maximal  LDIM  =      4   non local SUM 2l+1 LMDIM =      8
   total plane-waves  NPLWV =  46656
   max r-space proj   IRMAX =   6824   max aug-charges    IRDMAX=  38346
   dimension x,y,z NGX =    36 NGY =   36 NGZ =   36
   dimension x,y,z NGXF=    72 NGYF=   72 NGZF=   72
   support grid    NGXF=    72 NGYF=   72 NGZF=   72
   ions per type =               2
   NGX,Y,Z   is equivalent  to a cutoff of  15.48, 15.48, 15.48 a.u.
   NGXF,Y,Z  is equivalent  to a cutoff of  30.95, 30.95, 30.95 a.u.

 SYSTEM =  unknown system                          
 POSCAR =  Si2                                     

 Startparameter for this run:
   NWRITE =      2    write-flag & timer
   PREC   = accura    normal or accurate (medium, high low for compatibility)
   ISTART =      0    job   : 0-new  1-cont  2-samecut
   ICHARG =      2    charge: 1-file 2-atom 10-const
   ISPIN  =      1    spin polarized calculation?
   LNONCOLLINEAR =      F non collinear calculations
   LSORBIT =      F    spin-orbit coupling
   INIWAV =      1    electr: 0-lowe 1-rand  2-diag
   LASPH  =      T    aspherical Exc in radial PAW
 Electronic Relaxation 1
   ENCUT  =  680.0 eV  49.98 Ry    7.07 a.u.   8.22  8.22  8.22*2*pi/ulx,y,z
   ENINI  =  680.0     initial cutoff
   ENAUG  = 1360.0 eV  augmentation charge cutoff
   NELM   =    200;   NELMIN=  5; NELMDL= -5     # of ELM steps 
   EDIFF  = 0.1E-04   stopping-criterion for ELM
   LREAL  =      T    real-space projection
   NLSPLINE    = F    spline interpolate recip. space projectors
   LCOMPAT=      F    compatible to vasp.4.4
   GGA_COMPAT  = T    GGA compatible to vasp.4.4-vasp.4.6
   LMAXPAW     = -100 max onsite density
   LMAXMIX     =    2 max onsite mixed and CHGCAR
   VOSKOWN=      0    Vosko Wilk Nusair interpolation
   ROPT   =   -0.00025
 Ionic relaxation
   EDIFFG = -.2E-01   stopping-criterion for IOM
   NSW    =      0    number of steps for IOM
   NBLOCK =      1;   KBLOCK =      1    inner block; outer block 
   IBRION =     -1    ionic relax: 0-MD 1-quasi-New 2-CG
   NFREE  =      1    steps in history (QN), initial steepest desc. (CG)
   ISIF   =      3    stress and relaxation
   IWAVPR =     10    prediction:  0-non 1-charg 2-wave 3-comb
   ISYM   =      3    0-nonsym 1-usesym 2-fastsym
   LCORR  =      T    Harris-Foulkes like correction to forces

   POTIM  = 0.5000    time-step for ionic-motion
   TEIN   =    0.0    initial temperature
   TEBEG  =    0.0;   TEEND  =   0.0 temperature during run
   SMASS  =  -3.00    Nose mass-parameter (am)
   estimated Nose-frequenzy (Omega)   =  0.10E-29 period in steps = 0.13E+47 mass=  -0.342E-27a.u.
   SCALEE = 1.0000    scale energy and forces
   NPACO  =    256;   APACO  = 16.0  distance and # of slots for P.C.
   PSTRESS=    0.0 pullay stress

  Mass of Ions in am
   POMASS =  28.09
  Ionic Valenz
   ZVAL   =   4.00
  Atomic Wigner-Seitz radii
   RWIGS  =  -1.00
  virtual crystal weights 
   VCA    =   1.00
   NELECT =       8.0000    total number of electrons
   NUPDOWN=      -1.0000    fix difference up-down

 DOS related values:
   EMIN   =  10.00;   EMAX   =-10.00  energy-range for DOS
   EFERMI =   0.00
   ISMEAR =     0;   SIGMA  =   0.01  broadening in eV -4-tet -1-fermi 0-gaus

 Electronic relaxation 2 (details)
   IALGO  =     58    algorithm
   LDIAG  =      T    sub-space diagonalisation (order eigenvalues)
   LSUBROT=      F    optimize rotation matrix (better conditioning)
   TURBO    =      0    0=normal 1=particle mesh
   IRESTART =      0    0=no restart 2=restart with 2 vectors
   NREBOOT  =      0    no. of reboots
   NMIN     =      0    reboot dimension
   EREF     =   0.00    reference energy to select bands
   IMIX   =      4    mixing-type and parameters
     AMIX     =   0.40;   BMIX     =  1.00
     AMIX_MAG =   1.60;   BMIX_MAG =  1.00
     AMIN     =   0.10
     WC   =   100.;   INIMIX=   1;  MIXPRE=   1;  MAXMIX= -45

 Intra band minimization:
   WEIMIN = 0.0000     energy-eigenvalue tresh-hold
   EBREAK =  0.23E-06  absolut break condition
   DEPER  =   0.30     relativ break condition  

   TIME   =   0.40     timestep for ELM

  volume/ion in A,a.u.               =      20.44       137.96
  Fermi-wavevector in a.u.,A,eV,Ry     =   0.950397  1.795990 12.289528  0.903255
  Thomas-Fermi vector in A             =   2.078770
 
 Write flags
   LWAVE        =      F    write WAVECAR
   LDOWNSAMPLE  =      F    k-point downsampling of WAVECAR
   LCHARG       =      F    write CHGCAR
   LVTOT        =      T    write LOCPOT, total local potential
   LVHAR        =      F    write LOCPOT, Hartree potential only
   LELF         =      T    write electronic localiz. function (ELF)
   LORBIT       =     11    0 simple, 1 ext, 2 COOP (PROOUT), +10 PAW based schemes


 Dipole corrections
   LMONO  =      F    monopole corrections only (constant potential shift)
   LDIPOL =      F    correct potential (dipole corrections)
   IDIPOL =      0    1-x, 2-y, 3-z, 4-all directions 
   EPSILON=  1.0000000 bulk dielectric constant

 Exchange correlation treatment:
   GGA     =    PE    GGA type
   LEXCH   =     8    internal setting for exchange type
   VOSKOWN=      0    Vosko Wilk Nusair interpolation
   EXXOEP  =     0    0=HF, 1=EXX-LHF (local Hartree Fock) 2=EXX OEP
   LHFCALC =     T    Hartree Fock is set to
   LSYMGRAD=     F    symmetrize gradient (conserves proper symmetry)
   PRECFOCK=fast      Normal, Fast or Accurate (Low or Medium for compatibility)
   LRHFCALC=     F    long range Hartree Fock
   LRSCOR  =     F    long range correlation only (use DFT for short range part)
   LTHOMAS =     F    Thomas Fermi screening in HF
   LMODELHF=     F    short range full HF, long range fraction AEXX
   LFOCKACE=     T    use Adeptively-Compressed-Exchange operator
   ENCUT4O =  -1.0   cutoff for four orbital integrals eV
   LMAXFOCK=     4    L truncation for augmentation on plane wave grid
   LMAXFOCKAE=  -1    L truncation for all-electron charge restoration on plane wave grid
   NMAXFOCKAE=   1    number of basis functions for all-electron charge restoration
   LFOCKAEDFT=     F  apply the AE augmentation even for DFT
   NKREDX  =     1    reduce k-point grid by
   NKREDY  =     1    reduce k-point grid by
   NKREDZ  =     1    reduce k-point grid by
   SHIFTRED=     F    shift reduced grid of Gamma
   HFKIDENT=     F    idential grid for each k-point
   ODDONLY =     F    use only odd q-grid points
   EVENONLY=     F    use only even q-grid points
   HFALPHA =   -1.0000 decay constant for conv. correction
   MCALPHA =    0.0000 extent of test-charge in conv. correction in multipole expansion
   AEXX    =    0.2500 exact exchange contribution
   HFSCREEN=    0.2000 screening length (either q_TF or 0.3 A-1)
   HFSCREENC=   0.2000 screening length for correlation (either q_TF or 0.3 A-1)
   HFRCUT  =    0.0000 spherical cutoff for potential kernel
   ALDAX   =    0.7500 LDA exchange part
   AGGAX   =    0.7500 GGA exchange part
   ALDAC   =    1.0000 LDA correlation
   AGGAC   =    1.0000 GGA correlation
   ENCUTFOCK=  -1.0 apply spherical cutoff to Coloumb kernel
   NBANDSGWLOW=     1    first orbital included in HF term
   NBLOCK_FOCK=    64    blocking factor in FOCK_ACC
 Linear response parameters
   LEPSILON=     F    determine dielectric tensor
   LRPA    =     F    only Hartree local field effects (RPA)
   LNABLA  =     F    use nabla operator in PAW spheres
   LVEL    =     F    velocity operator in full k-point grid
   LINTERFAST=   F  fast interpolation
   KINTER  =     0    interpolate to denser k-point grid
   CSHIFT  =0.1000    complex shift for real part using Kramers Kronig
   OMEGAMAX=  -1.0    maximum frequency
   DEG_THRESHOLD= 0.2000000E-02 threshold for treating states as degnerate
   RTIME   =   -0.100 relaxation time in fs
  (WPLASMAI=    0.000 imaginary part of plasma frequency in eV, 0.658/RTIME)
   DFIELD  = 0.0000000 0.0000000 0.0000000 field for delta impulse in time
 
 Orbital magnetization related:
   ORBITALMAG=     F  switch on orbital magnetization
   LCHIMAG   =     F  perturbation theory with respect to B field
   DQ        =  0.001000  dq finite difference perturbation B field
   LLRAUG    =     F  two centre corrections for induced B field



--------------------------------------------------------------------------------------------------------


 Static calculation
 charge density and potential will be updated during run
 non-spin polarized calculation
 Conjugate gradient for all bands (Freysoldt, et al. PRB 79, 241103 (2009))
 preconditioned conjugated gradient                                        
 perform sub-space diagonalisation
    before iterative eigenvector-optimisation
 modified Broyden-mixing scheme, WC =      100.0
 initial mixing is a Kerker type mixing with AMIX =  0.4000 and BMIX =      1.0000
 Hartree-type preconditioning will be used
 using additional bands            7
 real space projection scheme for non local part
 use partial core corrections
 no Harris-corrections to forces 
 use gradient corrections 
 use of overlap-Matrix (Vanderbilt PP)
 Gauss-broadening in eV      SIGMA  =   0.01


--------------------------------------------------------------------------------------------------------


  energy-cutoff  :      680.00
  volume of cell :       40.89
      direct lattice vectors                 reciprocal lattice vectors
     3.348898000  0.000000000  1.933487000     0.298605691 -0.105573000  0.000000000
     1.116299000  3.157372000  1.933487000     0.000000000  0.316719094  0.000000000
     0.000000000  0.000000000  3.866975000    -0.149302807 -0.105573020  0.258600069

  length of vectors
     3.866974243  3.866974707  3.866975000     0.316719145  0.316719094  0.316719096


 
 k-points in units of 2pi/SCALE and weight: Hybrid run along symmetry lines         
   0.00000000  0.00000000  0.00000000       0.005
   0.04976762 -0.01759550  0.00000000       0.037
   0.09953523 -0.03519100  0.00000000       0.037
   0.14930285 -0.05278650  0.00000000       0.019
   0.04976762  0.03519102  0.00000000       0.028
   0.09953523  0.01759552  0.00000000       0.111
   0.14930285  0.00000002  0.00000000       0.111
  -0.09953523  0.08797752  0.00000000       0.111
  -0.04976762  0.07038202  0.00000000       0.056
   0.09953523  0.07038203  0.00000000       0.028
   0.14930285  0.05278653  0.00000000       0.111
  -0.09953523  0.14076403  0.00000000       0.056
   0.14930285  0.10557305  0.00000000       0.014
   0.12441904  0.03519103  0.04310001       0.111
  -0.12441903  0.12316853  0.04310001       0.111
  -0.12441903  0.17595504  0.04310001       0.056
   0.00000000  0.00000000  0.00000000       0.000
   0.00324571 -0.00459013  0.00562174       0.000
   0.00649143 -0.00918026  0.01124348       0.000
   0.00973714 -0.01377039  0.01686522       0.000
   0.01298286 -0.01836052  0.02248696       0.000
   0.01622857 -0.02295065  0.02810870       0.000
   0.01947429 -0.02754079  0.03373044       0.000
   0.02272000 -0.03213092  0.03935218       0.000
   0.02596572 -0.03672105  0.04497392       0.000
   0.02921143 -0.04131118  0.05059567       0.000
   0.03245715 -0.04590131  0.05621741       0.000
   0.03570286 -0.05049144  0.06183915       0.000
   0.03894858 -0.05508157  0.06746089       0.000
   0.04219429 -0.05967170  0.07308263       0.000
   0.04544001 -0.06426183  0.07870437       0.000
   0.04868572 -0.06885196  0.08432611       0.000
   0.05193144 -0.07344209  0.08994785       0.000
   0.05517715 -0.07803222  0.09556959       0.000
   0.05842287 -0.08262236  0.10119133       0.000
   0.06166858 -0.08721249  0.10681307       0.000
   0.06491430 -0.09180262  0.11243481       0.000
   0.06816001 -0.09639275  0.11805655       0.000
   0.07140573 -0.10098288  0.12367829       0.000
   0.07465144 -0.10557301  0.12930003       0.000
   0.07465144 -0.10557301  0.12930003       0.000
   0.07154097 -0.10117413  0.13468754       0.000
   0.06843049 -0.09677526  0.14007504       0.000
   0.06532002 -0.09237638  0.14546254       0.000
   0.06220954 -0.08797750  0.15085004       0.000
   0.05909907 -0.08357863  0.15623754       0.000
   0.05598859 -0.07917975  0.16162504       0.000
   0.05287812 -0.07478087  0.16701254       0.000
   0.04976764 -0.07038200  0.17240005       0.000
   0.04665717 -0.06598312  0.17778755       0.000
   0.04354669 -0.06158424  0.18317505       0.000
   0.04043622 -0.05718537  0.18856255       0.000
   0.03732574 -0.05278649  0.19395005       0.000
   0.03732574 -0.05278649  0.19395005       0.000
   0.03317844 -0.04692132  0.19395005       0.000
   0.02903114 -0.04105616  0.19395005       0.000
   0.02488384 -0.03519099  0.19395005       0.000
   0.02073654 -0.02932582  0.19395005       0.000
   0.01658923 -0.02346065  0.19395005       0.000
   0.01244193 -0.01759548  0.19395005       0.000
   0.00829463 -0.01173032  0.19395005       0.000
   0.00414733 -0.00586515  0.19395005       0.000
   0.00000003  0.00000002  0.19395005       0.000
   0.00000003  0.00000002  0.19395005       0.000
   0.00000003  0.00000002  0.18619205       0.000
   0.00000003  0.00000002  0.17843405       0.000
   0.00000003  0.00000002  0.17067605       0.000
   0.00000002  0.00000002  0.16291804       0.000
   0.00000002  0.00000002  0.15516004       0.000
   0.00000002  0.00000002  0.14740204       0.000
   0.00000002  0.00000001  0.13964404       0.000
   0.00000002  0.00000001  0.13188603       0.000
   0.00000002  0.00000001  0.12412803       0.000
   0.00000002  0.00000001  0.11637003       0.000
   0.00000002  0.00000001  0.10861203       0.000
   0.00000002  0.00000001  0.10085403       0.000
   0.00000001  0.00000001  0.09309602       0.000
   0.00000001  0.00000001  0.08533802       0.000
   0.00000001  0.00000001  0.07758002       0.000
   0.00000001  0.00000001  0.06982202       0.000
   0.00000001  0.00000001  0.06206402       0.000
   0.00000001  0.00000001  0.05430601       0.000
   0.00000001  0.00000000  0.04654801       0.000
   0.00000001  0.00000000  0.03879001       0.000
   0.00000000  0.00000000  0.03103201       0.000
   0.00000000  0.00000000  0.02327401       0.000
   0.00000000  0.00000000  0.01551600       0.000
   0.00000000  0.00000000  0.00775800       0.000
   0.00000000  0.00000000  0.00000000       0.000
   0.00000000  0.00000000  0.00000000       0.000
   0.00373257  0.00263933  0.00646500       0.000
   0.00746514  0.00527865  0.01293000       0.000
   0.01119772  0.00791798  0.01939501       0.000
   0.01493029  0.01055731  0.02586001       0.000
   0.01866286  0.01319663  0.03232501       0.000
   0.02239543  0.01583596  0.03879001       0.000
   0.02612800  0.01847529  0.04525501       0.000
   0.02986058  0.02111461  0.05172001       0.000
   0.03359315  0.02375394  0.05818502       0.000
   0.03732572  0.02639327  0.06465002       0.000
   0.04105829  0.02903260  0.07111502       0.000
   0.04479087  0.03167192  0.07758002       0.000
   0.04852344  0.03431125  0.08404502       0.000
   0.05225601  0.03695058  0.09051002       0.000
   0.05598858  0.03958990  0.09697503       0.000
   0.05972115  0.04222923  0.10344003       0.000
   0.06345373  0.04486856  0.10990503       0.000
   0.06718630  0.04750788  0.11637003       0.000
   0.07091887  0.05014721  0.12283503       0.000
   0.07465144  0.05278654  0.12930003       0.000
   0.07465144  0.05278654  0.12930003       0.000
   0.07589563  0.04574834  0.13145503       0.000
   0.07713982  0.03871013  0.13361004       0.000
   0.07838401  0.03167193  0.13576504       0.000
   0.07962820  0.02463373  0.13792004       0.000
   0.08087240  0.01759553  0.14007504       0.000
   0.08211659  0.01055733  0.14223004       0.000
   0.08336078  0.00351913  0.14438504       0.000
   0.08460497 -0.00351908  0.14654004       0.000
   0.08584916 -0.01055728  0.14869504       0.000
   0.08709335 -0.01759548  0.15085004       0.000
   0.08833754 -0.02463368  0.15300504       0.000
   0.08958173 -0.03167188  0.15516004       0.000
   0.09082592 -0.03871009  0.15731504       0.000
   0.09207011 -0.04574829  0.15947004       0.000
   0.09331430 -0.05278649  0.16162504       0.000
   0.09331430 -0.05278649  0.16162504       0.000
   0.08709335 -0.05278649  0.16521671       0.000
   0.08087240 -0.05278649  0.16880838       0.000
   0.07465145 -0.05278649  0.17240005       0.000
   0.06843050 -0.05278649  0.17599171       0.000
   0.06220955 -0.05278649  0.17958338       0.000
   0.05598859 -0.05278649  0.18317505       0.000
   0.04976764 -0.05278649  0.18676672       0.000
   0.04354669 -0.05278649  0.19035838       0.000
   0.03732574 -0.05278649  0.19395005       0.000
   0.03732574 -0.05278649  0.19395005       0.000
   0.03952137 -0.04657631  0.19014711       0.000
   0.04171700 -0.04036613  0.18634417       0.000
   0.04391263 -0.03415596  0.18254122       0.000
   0.04610826 -0.02794578  0.17873828       0.000
   0.04830389 -0.02173560  0.17493534       0.000
   0.05049952 -0.01552542  0.17113240       0.000
   0.05269515 -0.00931524  0.16732946       0.000
   0.05489078 -0.00310507  0.16352651       0.000
   0.05708641  0.00310511  0.15972357       0.000
   0.05928204  0.00931529  0.15592063       0.000
   0.06147766  0.01552547  0.15211769       0.000
   0.06367329  0.02173565  0.14831475       0.000
   0.06586892  0.02794582  0.14451180       0.000
   0.06806455  0.03415600  0.14070886       0.000
   0.07026018  0.04036618  0.13690592       0.000
   0.07245581  0.04657636  0.13310298       0.000
   0.07465144  0.05278654  0.12930003       0.000
   0.07465144  0.05278654  0.12930003       0.000
   0.06967468  0.04926744  0.13361004       0.000
   0.06469792  0.04574834  0.13792004       0.000
   0.05972116  0.04222923  0.14223004       0.000
   0.05474440  0.03871013  0.14654004       0.000
   0.04976764  0.03519103  0.15085004       0.000
   0.04479088  0.03167193  0.15516004       0.000
   0.03981412  0.02815283  0.15947004       0.000
   0.03483736  0.02463373  0.16378004       0.000
   0.02986059  0.02111463  0.16809004       0.000
   0.02488383  0.01759553  0.17240005       0.000
   0.01990707  0.01407642  0.17671005       0.000
   0.01493031  0.01055732  0.18102005       0.000
   0.00995355  0.00703822  0.18533005       0.000
   0.00497679  0.00351912  0.18964005       0.000
   0.00000003  0.00000002  0.19395005       0.000
   0.09331430 -0.05278649  0.16162504       0.000
   0.09124065 -0.05865166  0.15803338       0.000
   0.08916700 -0.06451683  0.15444171       0.000
   0.08709335 -0.07038200  0.15085004       0.000
   0.08501970 -0.07624716  0.14725837       0.000
   0.08294605 -0.08211233  0.14366670       0.000
   0.08087240 -0.08797750  0.14007504       0.000
   0.07879874 -0.09384267  0.13648337       0.000
   0.07672509 -0.09970784  0.13289170       0.000
   0.07465144 -0.10557301  0.12930003       0.000
 
 k-points in reciprocal lattice and weights: Hybrid run along symmetry lines         
   0.00000000  0.00000000  0.00000000       0.005
   0.16666667  0.00000000  0.00000000       0.037
   0.33333333  0.00000000  0.00000000       0.037
   0.50000000  0.00000000  0.00000000       0.019
   0.16666667  0.16666667  0.00000000       0.028
   0.33333333  0.16666667  0.00000000       0.111
   0.50000000  0.16666667  0.00000000       0.111
  -0.33333333  0.16666667  0.00000000       0.111
  -0.16666667  0.16666667  0.00000000       0.056
   0.33333333  0.33333333  0.00000000       0.028
   0.50000000  0.33333333  0.00000000       0.111
  -0.33333333  0.33333333  0.00000000       0.056
   0.50000000  0.50000000  0.00000000       0.014
   0.50000000  0.33333333  0.16666667       0.111
  -0.33333333  0.33333333  0.16666667       0.111
  -0.33333333  0.50000000  0.16666667       0.056
   0.00000000  0.00000000  0.00000000       0.000
   0.02173913  0.00000000  0.02173913       0.000
   0.04347826  0.00000000  0.04347826       0.000
   0.06521739  0.00000000  0.06521739       0.000
   0.08695652  0.00000000  0.08695652       0.000
   0.10869565  0.00000000  0.10869565       0.000
   0.13043478  0.00000000  0.13043478       0.000
   0.15217391  0.00000000  0.15217391       0.000
   0.17391304  0.00000000  0.17391304       0.000
   0.19565217  0.00000000  0.19565217       0.000
   0.21739130  0.00000000  0.21739130       0.000
   0.23913043  0.00000000  0.23913043       0.000
   0.26086957  0.00000000  0.26086957       0.000
   0.28260870  0.00000000  0.28260870       0.000
   0.30434783  0.00000000  0.30434783       0.000
   0.32608696  0.00000000  0.32608696       0.000
   0.34782609  0.00000000  0.34782609       0.000
   0.36956522  0.00000000  0.36956522       0.000
   0.39130435  0.00000000  0.39130435       0.000
   0.41304348  0.00000000  0.41304348       0.000
   0.43478261  0.00000000  0.43478261       0.000
   0.45652174  0.00000000  0.45652174       0.000
   0.47826087  0.00000000  0.47826087       0.000
   0.50000000  0.00000000  0.50000000       0.000
   0.50000000  0.00000000  0.50000000       0.000
   0.50000000  0.02083333  0.52083333       0.000
   0.50000000  0.04166667  0.54166667       0.000
   0.50000000  0.06250000  0.56250000       0.000
   0.50000000  0.08333333  0.58333333       0.000
   0.50000000  0.10416667  0.60416667       0.000
   0.50000000  0.12500000  0.62500000       0.000
   0.50000000  0.14583333  0.64583333       0.000
   0.50000000  0.16666667  0.66666667       0.000
   0.50000000  0.18750000  0.68750000       0.000
   0.50000000  0.20833333  0.70833333       0.000
   0.50000000  0.22916667  0.72916667       0.000
   0.50000000  0.25000000  0.75000000       0.000
   0.50000000  0.25000000  0.75000000       0.000
   0.48611111  0.26388889  0.75000000       0.000
   0.47222222  0.27777778  0.75000000       0.000
   0.45833333  0.29166667  0.75000000       0.000
   0.44444444  0.30555556  0.75000000       0.000
   0.43055556  0.31944444  0.75000000       0.000
   0.41666667  0.33333333  0.75000000       0.000
   0.40277778  0.34722222  0.75000000       0.000
   0.38888889  0.36111111  0.75000000       0.000
   0.37500000  0.37500000  0.75000000       0.000
   0.37500000  0.37500000  0.75000000       0.000
   0.36000000  0.36000000  0.72000000       0.000
   0.34500000  0.34500000  0.69000000       0.000
   0.33000000  0.33000000  0.66000000       0.000
   0.31500000  0.31500000  0.63000000       0.000
   0.30000000  0.30000000  0.60000000       0.000
   0.28500000  0.28500000  0.57000000       0.000
   0.27000000  0.27000000  0.54000000       0.000
   0.25500000  0.25500000  0.51000000       0.000
   0.24000000  0.24000000  0.48000000       0.000
   0.22500000  0.22500000  0.45000000       0.000
   0.21000000  0.21000000  0.42000000       0.000
   0.19500000  0.19500000  0.39000000       0.000
   0.18000000  0.18000000  0.36000000       0.000
   0.16500000  0.16500000  0.33000000       0.000
   0.15000000  0.15000000  0.30000000       0.000
   0.13500000  0.13500000  0.27000000       0.000
   0.12000000  0.12000000  0.24000000       0.000
   0.10500000  0.10500000  0.21000000       0.000
   0.09000000  0.09000000  0.18000000       0.000
   0.07500000  0.07500000  0.15000000       0.000
   0.06000000  0.06000000  0.12000000       0.000
   0.04500000  0.04500000  0.09000000       0.000
   0.03000000  0.03000000  0.06000000       0.000
   0.01500000  0.01500000  0.03000000       0.000
   0.00000000  0.00000000  0.00000000       0.000
   0.00000000  0.00000000  0.00000000       0.000
   0.02500000  0.02500000  0.02500000       0.000
   0.05000000  0.05000000  0.05000000       0.000
   0.07500000  0.07500000  0.07500000       0.000
   0.10000000  0.10000000  0.10000000       0.000
   0.12500000  0.12500000  0.12500000       0.000
   0.15000000  0.15000000  0.15000000       0.000
   0.17500000  0.17500000  0.17500000       0.000
   0.20000000  0.20000000  0.20000000       0.000
   0.22500000  0.22500000  0.22500000       0.000
   0.25000000  0.25000000  0.25000000       0.000
   0.27500000  0.27500000  0.27500000       0.000
   0.30000000  0.30000000  0.30000000       0.000
   0.32500000  0.32500000  0.32500000       0.000
   0.35000000  0.35000000  0.35000000       0.000
   0.37500000  0.37500000  0.37500000       0.000
   0.40000000  0.40000000  0.40000000       0.000
   0.42500000  0.42500000  0.42500000       0.000
   0.45000000  0.45000000  0.45000000       0.000
   0.47500000  0.47500000  0.47500000       0.000
   0.50000000  0.50000000  0.50000000       0.000
   0.50000000  0.50000000  0.50000000       0.000
   0.50833333  0.48333333  0.50833333       0.000
   0.51666667  0.46666667  0.51666667       0.000
   0.52500000  0.45000000  0.52500000       0.000
   0.53333333  0.43333333  0.53333333       0.000
   0.54166667  0.41666667  0.54166667       0.000
   0.55000000  0.40000000  0.55000000       0.000
   0.55833333  0.38333333  0.55833333       0.000
   0.56666667  0.36666667  0.56666667       0.000
   0.57500000  0.35000000  0.57500000       0.000
   0.58333333  0.33333333  0.58333333       0.000
   0.59166667  0.31666667  0.59166667       0.000
   0.60000000  0.30000000  0.60000000       0.000
   0.60833333  0.28333333  0.60833333       0.000
   0.61666667  0.26666667  0.61666667       0.000
   0.62500000  0.25000000  0.62500000       0.000
   0.62500000  0.25000000  0.62500000       0.000
   0.61111111  0.25000000  0.63888889       0.000
   0.59722222  0.25000000  0.65277778       0.000
   0.58333333  0.25000000  0.66666667       0.000
   0.56944444  0.25000000  0.68055556       0.000
   0.55555556  0.25000000  0.69444444       0.000
   0.54166667  0.25000000  0.70833333       0.000
   0.52777778  0.25000000  0.72222222       0.000
   0.51388889  0.25000000  0.73611111       0.000
   0.50000000  0.25000000  0.75000000       0.000
   0.50000000  0.25000000  0.75000000       0.000
   0.50000000  0.26470588  0.73529412       0.000
   0.50000000  0.27941176  0.72058824       0.000
   0.50000000  0.29411765  0.70588235       0.000
   0.50000000  0.30882353  0.69117647       0.000
   0.50000000  0.32352941  0.67647059       0.000
   0.50000000  0.33823529  0.66176471       0.000
   0.50000000  0.35294118  0.64705882       0.000
   0.50000000  0.36764706  0.63235294       0.000
   0.50000000  0.38235294  0.61764706       0.000
   0.50000000  0.39705882  0.60294118       0.000
   0.50000000  0.41176471  0.58823529       0.000
   0.50000000  0.42647059  0.57352941       0.000
   0.50000000  0.44117647  0.55882353       0.000
   0.50000000  0.45588235  0.54411765       0.000
   0.50000000  0.47058824  0.52941176       0.000
   0.50000000  0.48529412  0.51470588       0.000
   0.50000000  0.50000000  0.50000000       0.000
   0.50000000  0.50000000  0.50000000       0.000
   0.49166667  0.49166667  0.51666667       0.000
   0.48333333  0.48333333  0.53333333       0.000
   0.47500000  0.47500000  0.55000000       0.000
   0.46666667  0.46666667  0.56666667       0.000
   0.45833333  0.45833333  0.58333333       0.000
   0.45000000  0.45000000  0.60000000       0.000
   0.44166667  0.44166667  0.61666667       0.000
   0.43333333  0.43333333  0.63333333       0.000
   0.42500000  0.42500000  0.65000000       0.000
   0.41666667  0.41666667  0.66666667       0.000
   0.40833333  0.40833333  0.68333333       0.000
   0.40000000  0.40000000  0.70000000       0.000
   0.39166667  0.39166667  0.71666667       0.000
   0.38333333  0.38333333  0.73333333       0.000
   0.37500000  0.37500000  0.75000000       0.000
   0.62500000  0.25000000  0.62500000       0.000
   0.61111111  0.22222222  0.61111111       0.000
   0.59722222  0.19444444  0.59722222       0.000
   0.58333333  0.16666667  0.58333333       0.000
   0.56944444  0.13888889  0.56944444       0.000
   0.55555556  0.11111111  0.55555556       0.000
   0.54166667  0.08333333  0.54166667       0.000
   0.52777778  0.05555556  0.52777778       0.000
   0.51388889  0.02777778  0.51388889       0.000
   0.50000000  0.00000000  0.50000000       0.000
 
 position of ions in fractional coordinates (direct lattice) 
   0.25000000  0.25000000  0.25000000
   0.00000000  0.00000000  0.00000000
 
 position of ions in cartesian coordinates  (Angst):
   1.11629925  0.78934300  1.93348725
   0.00000000  0.00000000  0.00000000
 


--------------------------------------------------------------------------------------------------------


 k-point   1 :   0.0000 0.0000 0.0000  plane waves:    1639
 k-point   2 :   0.1667 0.0000 0.0000  plane waves:    1642
 k-point   3 :   0.3333 0.0000 0.0000  plane waves:    1634
 k-point   4 :   0.5000 0.0000 0.0000  plane waves:    1676
 k-point   5 :   0.1667 0.1667 0.0000  plane waves:    1647
 k-point   6 :   0.3333 0.1667 0.0000  plane waves:    1651
 k-point   7 :   0.5000 0.1667 0.0000  plane waves:    1641
 k-point   8 :  -0.3333 0.1667 0.0000  plane waves:    1644
 k-point   9 :  -0.1667 0.1667 0.0000  plane waves:    1636
 k-point  10 :   0.3333 0.3333 0.0000  plane waves:    1644
 k-point  11 :   0.5000 0.3333 0.0000  plane waves:    1646
 k-point  12 :  -0.3333 0.3333 0.0000  plane waves:    1652
 k-point  13 :   0.5000 0.5000 0.0000  plane waves:    1660
 k-point  14 :   0.5000 0.3333 0.1667  plane waves:    1646
 k-point  15 :  -0.3333 0.3333 0.1667  plane waves:    1652
 k-point  16 :  -0.3333 0.5000 0.1667  plane waves:    1646
 k-point  17 :   0.0000 0.0000 0.0000  plane waves:    1639
 k-point  18 :   0.0217 0.0000 0.0217  plane waves:    1643
 k-point  19 :   0.0435 0.0000 0.0435  plane waves:    1659
 k-point  20 :   0.0652 0.0000 0.0652  plane waves:    1659
 k-point  21 :   0.0870 0.0000 0.0870  plane waves:    1659
 k-point  22 :   0.1087 0.0000 0.1087  plane waves:    1651
 k-point  23 :   0.1304 0.0000 0.1304  plane waves:    1647
 k-point  24 :   0.1522 0.0000 0.1522  plane waves:    1647
 k-point  25 :   0.1739 0.0000 0.1739  plane waves:    1647
 k-point  26 :   0.1957 0.0000 0.1957  plane waves:    1640
 k-point  27 :   0.2174 0.0000 0.2174  plane waves:    1640
 k-point  28 :   0.2391 0.0000 0.2391  plane waves:    1636
 k-point  29 :   0.2609 0.0000 0.2609  plane waves:    1636
 k-point  30 :   0.2826 0.0000 0.2826  plane waves:    1644
 k-point  31 :   0.3043 0.0000 0.3043  plane waves:    1652
 k-point  32 :   0.3261 0.0000 0.3261  plane waves:    1644
 k-point  33 :   0.3478 0.0000 0.3478  plane waves:    1640
 k-point  34 :   0.3696 0.0000 0.3696  plane waves:    1652
 k-point  35 :   0.3913 0.0000 0.3913  plane waves:    1652
 k-point  36 :   0.4130 0.0000 0.4130  plane waves:    1644
 k-point  37 :   0.4348 0.0000 0.4348  plane waves:    1644
 k-point  38 :   0.4565 0.0000 0.4565  plane waves:    1656
 k-point  39 :   0.4783 0.0000 0.4783  plane waves:    1660
 k-point  40 :   0.5000 0.0000 0.5000  plane waves:    1660
 k-point  41 :   0.5000 0.0000 0.5000  plane waves:    1660
 k-point  42 :   0.5000 0.0208 0.5208  plane waves:    1660
 k-point  43 :   0.5000 0.0417 0.5417  plane waves:    1652
[...]
      7       9.4529      0.00000
      8      13.9055      0.00000
      9      16.7377      0.00000
     10      16.9295      0.00000
     11      17.7685      0.00000

 k-point   154 :       0.5000    0.5000    0.5000
  band No.  band energies     occupation 
      1      -5.3481      2.00000
      2      -2.3559      2.00000
      3       3.9658      2.00000
      4       3.9658      2.00000
      5       7.4370      0.00000
      6       9.4214      0.00000
      7       9.4214      0.00000
      8      13.8663      0.00000
      9      17.0187      0.00000
     10      17.0203      0.00000
     11      17.6393      0.00000

 k-point   155 :       0.5000    0.5000    0.5000
  band No.  band energies     occupation 
      1      -5.3481      2.00000
      2      -2.3559      2.00000
      3       3.9658      2.00000
      4       3.9658      2.00000
      5       7.4370      0.00000
      6       9.4214      0.00000
      7       9.4214      0.00000
      8      13.8663      0.00000
      9      17.0183      0.00000
     10      17.0189      0.00000
     11      17.6362      0.00000

 k-point   156 :       0.4917    0.4917    0.5167
  band No.  band energies     occupation 
      1      -5.3401      2.00000
      2      -2.3518      2.00000
      3       3.8964      2.00000
      4       3.9516      2.00000
      5       7.5007      0.00000
      6       9.4070      0.00000
      7       9.4513      0.00000
      8      13.9041      0.00000
      9      16.7472      0.00000
     10      16.9351      0.00000
     11      17.7470      0.00000

 k-point   157 :       0.4833    0.4833    0.5333
  band No.  band energies     occupation 
      1      -5.3160      2.00000
      2      -2.3398      2.00000
      3       3.7066      2.00000
      4       3.9106      2.00000
      5       7.6691      0.00000
      6       9.3721      0.00000
      7       9.5393      0.00000
      8      14.0100      0.00000
      9      16.2824      0.00000
     10      16.7377      0.00000
     11      17.6303      0.00000

 k-point   158 :       0.4750    0.4750    0.5500
  band No.  band energies     occupation 
      1      -5.2760      2.00000
      2      -2.3205      2.00000
      3       3.4292      2.00000
      4       3.8453      2.00000
      5       7.8893      0.00000
      6       9.3464      0.00000
      7       9.6829      0.00000
      8      14.1586      0.00000
      9      15.8188      0.00000
     10      16.5145      0.00000
     11      17.5177      0.00000

 k-point   159 :       0.4667    0.4667    0.5667
  band No.  band energies     occupation 
      1      -5.2201      2.00000
      2      -2.2952      2.00000
      3       3.0992      2.00000
      4       3.7601      2.00000
      5       8.0837      0.00000
      6       9.3856      0.00000
      7       9.8773      0.00000
      8      14.2914      0.00000
      9      15.4089      0.00000
     10      16.2884      0.00000
     11      17.4311      0.00000

 k-point   160 :       0.4583    0.4583    0.5833
  band No.  band energies     occupation 
      1      -5.1485      2.00000
      2      -2.2656      2.00000
      3       2.7422      2.00000
      4       3.6598      2.00000
      5       8.1750      0.00000
      6       9.5548      0.00000
      7      10.1177      0.00000
      8      14.2689      0.00000
      9      15.1657      0.00000
     10      16.0675      0.00000
     11      17.3941      0.00000

 k-point   161 :       0.4500    0.4500    0.6000
  band No.  band energies     occupation 
      1      -5.0614      2.00000
      2      -2.2346      2.00000
      3       2.3769      2.00000
      4       3.5494      2.00000
      5       8.1503      0.00000
      6       9.8605      0.00000
      7      10.3989      0.00000
      8      13.9900      0.00000
      9      15.1544      0.00000
     10      15.8552      0.00000
     11      17.4437      0.00000

 k-point   162 :       0.4417    0.4417    0.6167
  band No.  band energies     occupation 
      1      -4.9591      2.00000
      2      -2.2060      2.00000
      3       2.0174      2.00000
      4       3.4333      2.00000
      5       8.0544      0.00000
      6      10.2548      0.00000
      7      10.7159      0.00000
      8      13.5891      0.00000
      9      15.2073      0.00000
     10      15.6537      0.00000
     11      17.6132      0.00000

 k-point   163 :       0.4333    0.4333    0.6333
  band No.  band energies     occupation 
      1      -4.8421      2.00000
      2      -2.1850      2.00000
      3       1.6761      2.00000
      4       3.3154      2.00000
      5       7.9265      0.00000
      6      10.6949      0.00000
      7      11.0644      0.00000
      8      13.1621      0.00000
      9      15.2187      0.00000
     10      15.4642      0.00000
     11      17.9121      0.00000

 k-point   164 :       0.4250    0.4250    0.6500
  band No.  band energies     occupation 
      1      -4.7110      2.00000
      2      -2.1786      2.00000
      3       1.3648      2.00000
      4       3.1989      2.00000
      5       7.7882      0.00000
      6      11.1497      0.00000
      7      11.4401      0.00000
      8      12.7464      0.00000
      9      15.1743      0.00000
     10      15.2879      0.00000
     11      18.3243      0.00000

 k-point   165 :       0.4167    0.4167    0.6667
  band No.  band energies     occupation 
      1      -4.5668      2.00000
      2      -2.1949      2.00000
      3       1.0959      2.00000
      4       3.0865      2.00000
      5       7.6507      0.00000
      6      11.5567      0.00000
      7      11.8391      0.00000
      8      12.4032      0.00000
      9      15.0883      0.00000
     10      15.1261      0.00000
     11      18.8234      0.00000

 k-point   166 :       0.4083    0.4083    0.6833
  band No.  band energies     occupation 
      1      -4.4114      2.00000
      2      -2.2421      2.00000
      3       0.8811      2.00000
      4       2.9804      2.00000
      5       7.5203      0.00000
      6      11.6182      0.00000
      7      12.2566      0.00000
      8      12.4279      0.00000
      9      14.9768      0.00000
     10      14.9811      0.00000
     11      19.3856      0.00000

 k-point   167 :       0.4000    0.4000    0.7000
  band No.  band energies     occupation 
      1      -4.2477      2.00000
      2      -2.3252      2.00000
      3       0.7298      2.00000
      4       2.8824      2.00000
      5       7.4009      0.00000
      6      11.3077      0.00000
      7      12.6861      0.00000
      8      12.8458      0.00000
      9      14.8517      0.00000
     10      14.8572      0.00000
     11      20.0607      0.00000

 k-point   168 :       0.3917    0.3917    0.7167
  band No.  band energies     occupation 
      1      -4.0818      2.00000
      2      -2.4413      2.00000
      3       0.6460      2.00000
      4       2.7939      2.00000
      5       7.2947      0.00000
      6      10.9356      0.00000
      7      13.1154      0.00000
      8      13.3441      0.00000
      9      14.7213      0.00000
     10      14.7649      0.00000
     11      21.4037      0.00000

 k-point   169 :       0.3833    0.3833    0.7333
  band No.  band energies     occupation 
      1      -3.9263      2.00000
      2      -2.5749      2.00000
      3       0.6270      2.00000
      4       2.7160      2.00000
      5       7.2034      0.00000
      6      10.5626      0.00000
      7      13.5147      0.00000
      8      13.8562      0.00000
      9      14.5956      0.00000
     10      14.7316      0.00000
     11      21.2512      0.00000

 k-point   170 :       0.3750    0.3750    0.7500
  band No.  band energies     occupation 
      1      -3.8095      2.00000
      2      -2.6899      2.00000
      3       0.6651      2.00000
      4       2.6496      2.00000
      5       7.1277      0.00000
      6      10.2008      0.00000
      7      13.8135      0.00000
      8      14.2895      0.00000
      9      14.5574      0.00000
     10      14.8260      0.00000
     11      21.1770      0.00000

 k-point   171 :       0.6250    0.2500    0.6250
  band No.  band energies     occupation 
      1      -3.8095      2.00000
      2      -2.6899      2.00000
      3       0.6651      2.00000
      4       2.6496      2.00000
      5       7.1277      0.00000
      6      10.2008      0.00000
      7      13.8135      0.00000
      8      14.2895      0.00000
      9      14.5574      0.00000
     10      14.8260      0.00000
     11      21.1886      0.00000

 k-point   172 :       0.6111    0.2222    0.6111
  band No.  band energies     occupation 
      1      -3.6848      2.00000
      2      -2.8271      2.00000
      3       0.7917      2.00000
      4       2.5537      2.00000
      5       7.0206      0.00000
      6       9.6178      0.00000
      7      14.1775      0.00000
      8      14.6674      0.00000
      9      14.8516      0.00000
     10      15.1477      0.00000
     11      20.9927      0.00000

 k-point   173 :       0.5972    0.1944    0.5972
  band No.  band energies     occupation 
      1      -3.5844      2.00000
      2      -2.9483      2.00000
      3       0.9574      2.00000
      4       2.4680      2.00000
      5       6.9249      0.00000
      6       9.0550      0.00000
      7      14.5471      0.00000
      8      15.0586      0.00000
      9      15.1460      0.00000
     10      15.4789      0.00000
     11      20.7638      0.00000

 k-point   174 :       0.5833    0.1667    0.5833
  band No.  band energies     occupation 
      1      -3.5064      2.00000
      2      -3.0534      2.00000
      3       1.1553      2.00000
      4       2.3928      2.00000
      5       6.8412      0.00000
      6       8.5196      0.00000
      7      14.9193      0.00000
      8      15.4367      0.00000
      9      15.4596      0.00000
     10      15.8171      0.00000
     11      20.5049      0.00000

 k-point   175 :       0.5694    0.1389    0.5694
  band No.  band energies     occupation 
      1      -3.4480      2.00000
      2      -3.1424      2.00000
      3       1.3754      2.00000
      4       2.3286      2.00000
      5       6.7698      0.00000
      6       8.0202      0.00000
      7      15.2898      0.00000
      8      15.7179      0.00000
      9      15.8668      0.00000
     10      16.1584      0.00000
     11      20.2568      0.00000

 k-point   176 :       0.5556    0.1111    0.5556
  band No.  band energies     occupation 
      1      -3.4060      2.00000
      2      -3.2153      2.00000
      3       1.6038      2.00000
      4       2.2757      2.00000
      5       6.7110      0.00000
      6       7.5681      0.00000
      7      15.6513      0.00000
      8      15.9819      0.00000
      9      16.2743      0.00000
     10      16.4974      0.00000
     11      20.0046      0.00000

 k-point   177 :       0.5417    0.0833    0.5417
  band No.  band energies     occupation 
      1      -3.3771      2.00000
      2      -3.2720      2.00000
      3       1.8225      2.00000
      4       2.2343      2.00000
      5       6.6651      0.00000
      6       7.1789      0.00000
      7      15.9913      0.00000
      8      16.2172      0.00000
      9      16.6718      0.00000
     10      16.8242      0.00000
     11      19.7402      0.00000

 k-point   178 :       0.5278    0.0556    0.5278
  band No.  band energies     occupation 
      1      -3.3585      2.00000
      2      -3.3125      2.00000
      3       2.0083      2.00000
      4       2.2046      2.00000
      5       6.6322      0.00000
      6       6.8731      0.00000
      7      16.2872      0.00000
      8      16.4082      0.00000
      9      17.0372      0.00000
     10      17.1203      0.00000
     11      19.6095      0.00000

 k-point   179 :       0.5139    0.0278    0.5139
  band No.  band energies     occupation 
      1      -3.3482      2.00000
      2      -3.3368      2.00000
      3       2.1348      2.00000
      4       2.1867      2.00000
      5       6.6124      0.00000
      6       6.6753      0.00000
      7      16.5004      0.00000
      8      16.5354      0.00000
      9      17.3216      0.00000
     10      17.3465      0.00000
     11      19.5082      0.00000

 k-point   180 :       0.5000    0.0000    0.5000
  band No.  band energies     occupation 
      1      -3.3449      2.00000
      2      -3.3449      2.00000
      3       2.1808      2.00000
      4       2.1808      2.00000
      5       6.6057      0.00000
      6       6.6057      0.00000
      7      16.5804      0.00000
      8      16.5805      0.00000
      9      17.4359      0.00000
     10      17.4364      0.00000
     11      19.3870      0.00000


--------------------------------------------------------------------------------------------------------


 soft charge-density along one line, spin component           1
         0         1         2         3         4         5         6         7         8         9
 total charge-density along one line
 
 pseudopotential strength for first ion, spin component:           1
 17.877  24.944  -0.000  -0.000   0.000  -0.000  -0.000   0.000
 24.944  34.807  -0.000  -0.000   0.000  -0.000  -0.000   0.000
 -0.000  -0.000   4.079   0.000  -0.000   7.604   0.000  -0.000
 -0.000  -0.000   0.000   4.079   0.000   0.000   7.604   0.000
  0.000   0.000  -0.000   0.000   4.079  -0.000   0.000   7.604
 -0.000  -0.000   7.604   0.000  -0.000  14.185   0.000  -0.000
 -0.000  -0.000   0.000   7.604   0.000   0.000  14.185   0.000
  0.000   0.000  -0.000   0.000   7.604  -0.000   0.000  14.185
 total augmentation occupancy for first ion, spin component:           1
 10.739  -5.005   0.000   0.000  -0.000  -0.000  -0.000   0.000
 -5.005   2.382  -0.000   0.000   0.000   0.000   0.000  -0.000
  0.000  -0.000   3.841   0.000  -0.000  -1.018  -0.000   0.000
  0.000   0.000   0.000   3.841   0.000  -0.000  -1.018  -0.000
 -0.000   0.000  -0.000   0.000   3.841   0.000  -0.000  -1.018
 -0.000   0.000  -1.018  -0.000   0.000   0.275   0.000  -0.000
 -0.000   0.000  -0.000  -1.018  -0.000   0.000   0.275   0.000
  0.000  -0.000   0.000  -0.000  -1.018  -0.000   0.000   0.275


------------------------ aborting loop because EDIFF is reached ----------------------------------------





 total charge

# of ion       s       p       d       tot
------------------------------------------
    1        0.757   0.951   0.000   1.708
    2        0.757   0.951   0.000   1.708
--------------------------------------------------
tot          1.514   1.902   0.000   3.416
 
    FORLOC:  cpu time    0.0018: real time    0.0018
    FORHF :  cpu time  158.3895: real time  158.7175
    FORNL :  cpu time    0.8445: real time    0.8458
    STRESS:  cpu time    2.6222: real time    2.6262
    FORCOR:  cpu time    0.1208: real time    0.1210
    OFIELD:  cpu time    0.0003: real time    0.0003

  FORCE on cell =-STRESS in cart. coord.  units (eV):
  Direction    XX          YY          ZZ          XY          YZ          ZX
  --------------------------------------------------------------------------------------
  Alpha Z     3.29318     3.29318     3.29318
  Ewald     -75.64832   -75.64835   -75.64832    -0.00001     0.00001     0.00001
  Hartree     5.08913     5.08913     5.08913    -0.00000     0.00000     0.00000
  E(xc)     -19.52942   -19.52942   -19.52942     0.00000     0.00000     0.00000
  Local     -29.38077   -29.38076   -29.38077     0.00001     0.00000    -0.00000
  n-local    69.99766    73.27048    77.37329    -0.85523    -0.47499     0.01913
  augment   -10.67364   -10.67364   -10.67364    -0.00000    -0.00000    -0.00000
  Kinetic    52.57700    55.20314    60.53898     0.75521     0.65957    -0.53341
  Fock            NaN         NaN         NaN         NaN         NaN         NaN
  -------------------------------------------------------------------------------------
  Total           NaN         NaN         NaN         NaN         NaN         NaN
  in kB           NaN         NaN         NaN         NaN         NaN         NaN
  external pressure =         NaN kB  Pullay stress =        0.00 kB


 VOLUME and BASIS-vectors are now :
 -----------------------------------------------------------------------------
  energy-cutoff  :      680.00
  volume of cell :       40.89
      direct lattice vectors                 reciprocal lattice vectors
     3.348898000  0.000000000  1.933487000     0.298605691 -0.105573000  0.000000000
     1.116299000  3.157372000  1.933487000     0.000000000  0.316719094  0.000000000
     0.000000000  0.000000000  3.866975000    -0.149302807 -0.105573020  0.258600069

  length of vectors
     3.866974243  3.866974707  3.866975000     0.316719145  0.316719094  0.316719096


 FORCES acting on ions:
    Electron-Ion                     Ewald-Force                    Non-Local-Force
 -----------------------------------------------------------------------------------------------
   0.533E-05 -.517E-05 -.610E-05   -.634E-05 0.116E-04 0.142E-04   0.948E-16 0.447E-16 0.715E-16
   -.244E-05 0.107E-04 0.157E-04   0.634E-05 -.116E-04 -.142E-04   -.789E-16 -.383E-16 -.714E-16
 -----------------------------------------------------------------------------------------------
   0.309E-05 0.593E-05 0.103E-04   0.718E-18 -.107E-15 0.148E-15   0.159E-16 0.640E-17 0.848E-19
 
 
 POSITION                                       TOTAL-FORCE (eV/Angst)
 -----------------------------------------------------------------------------------
      1.11630      0.78934      1.93349              NaN           NaN           NaN
      0.00000      0.00000      0.00000              NaN           NaN           NaN
 -----------------------------------------------------------------------------------
    total drift:                                     NaN           NaN           NaN


--------------------------------------------------------------------------------------------------------



  FREE ENERGIE OF THE ION-ELECTRON SYSTEM (eV)
  ---------------------------------------------------
  free  energy   TOTEN  =       -12.56405026 eV

  energy  without entropy=      -12.56405026  energy(sigma->0) =      -12.56405026
 


--------------------------------------------------------------------------------------------------------


    POTLOK:  cpu time    0.2702: real time    0.2704


--------------------------------------------------------------------------------------------------------


     LOOP+:  cpu time 5095.4536: real time 5196.9181
    4ORBIT:  cpu time    0.0000: real time    0.0000



 total charge

# of ion       s       p       d       tot
------------------------------------------
    1        0.757   0.951   0.000   1.708
    2        0.757   0.951   0.000   1.708
--------------------------------------------------
tot          1.514   1.902   0.000   3.416
 

 total amount of memory used by VASP MPI-rank0    83790. kBytes
=======================================================================

   base      :      30000. kBytes
   nonlr-proj:       1256. kBytes
   fftplans  :       3674. kBytes
   grid      :       5033. kBytes
   one-center:          3. kBytes
   HF        :          4. kBytes
   wavefun   :      42957. kBytes
   fock_wrk  :        863. kBytes
 
  
  
 General timing and accounting informations for this job:
 ========================================================
  
                  Total CPU time used (sec):     5131.546
                            User time (sec):     5099.883
                          System time (sec):       31.663
                         Elapsed time (sec):     5233.468
  
                   Maximum memory used (kb):   209084416.
                   Average memory used (kb):          N/A
  
                          Minor page faults:       152716
                          Major page faults:          122
                 Voluntary context switches:           17
