<?xml version="1.0" encoding="ISO-8859-1"?>
<modeling>
 <generator>
  <i name="program" type="string">vasp </i>
  <i name="version" type="string">6.2.1  </i>
  <i name="subversion" type="string">16May21 (build Oct 27 2021 18:14:32) complex                          parallel </i>
  <i name="platform" type="string">LinuxIFC </i>
  <i name="date" type="string">2021 10 29 </i>
  <i name="time" type="string">15:54:15 </i>
 </generator>
 <incar>
  <i type="string" name="PREC">Accurate</i>
  <i type="string" name="ALGO">All</i>
  <i type="int" name="ISPIN">     1</i>
  <i type="int" name="NELM">   200</i>
  <i type="int" name="NELMIN">     5</i>
  <i type="int" name="IBRION">     2</i>
  <i name="EDIFF">      0.00001000</i>
  <i name="EDIFFG">     -0.02000000</i>
  <i type="int" name="NSW">     0</i>
  <i type="int" name="ISIF">     3</i>
  <i name="ENCUT">    680.00000000</i>
  <i name="ENAUG">   1360.00000000</i>
  <i type="int" name="NBANDS">    11</i>
  <i type="string" name="LREAL">Auto</i>
  <i type="int" name="ISMEAR">     0</i>
  <i name="SIGMA">      0.01000000</i>
  <i type="logical" name="LWAVE"> F  </i>
  <i type="logical" name="LCHARG"> F  </i>
  <i type="logical" name="LVTOT"> T  </i>
  <i type="int" name="LORBIT">    11</i>
  <i type="logical" name="LELF"> T  </i>
  <i type="logical" name="LASPH"> T  </i>
  <i type="logical" name="LAECHG"> T  </i>
  <i name="HFSCREEN">      0.20000000</i>
  <i type="logical" name="LHFCALC"> T  </i>
  <i type="string" name="GGA">Pe</i>
  <i type="string" name="PRECFOCK">Fast</i>
  <i type="logical" name="LMIXTAU"> T  </i>
 </incar>
 <primitive_cell>
  <structure name="primitive_cell" >
   <crystal>
    <varray name="basis" >
     <v>       3.34889800       0.00000000       1.93348700 </v>
     <v>       1.11629900       3.15737200       1.93348700 </v>
     <v>       0.00000000       0.00000000       3.86697500 </v>
    </varray>
    <i name="volume">     40.88829843 </i>
    <varray name="rec_basis" >
     <v>       0.29860569      -0.10557300       0.00000000 </v>
     <v>       0.00000000       0.31671909       0.00000000 </v>
     <v>      -0.14930281      -0.10557302       0.25860007 </v>
    </varray>
   </crystal>
   <varray name="positions" >
    <v>       0.25000000       0.25000000       0.25000000 </v>
    <v>       0.00000000       0.00000000       0.00000000 </v>
   </varray>
  </structure>
  <varray name="primitive_index" >
   <v type="int" >        1 </v>
   <v type="int" >        2 </v>
  </varray>
 </primitive_cell>
 <kpoints>
  <varray name="kpointlist" >
   <v>       0.00000000       0.00000000       0.00000000 </v>
   <v>       0.16666667       0.00000000       0.00000000 </v>
   <v>       0.33333333       0.00000000       0.00000000 </v>
   <v>       0.50000000       0.00000000       0.00000000 </v>
   <v>       0.16666667       0.16666667       0.00000000 </v>
   <v>       0.33333333       0.16666667       0.00000000 </v>
   <v>       0.50000000       0.16666667       0.00000000 </v>
   <v>      -0.33333333       0.16666667       0.00000000 </v>
   <v>      -0.16666667       0.16666667       0.00000000 </v>
   <v>       0.33333333       0.33333333       0.00000000 </v>
   <v>       0.50000000       0.33333333       0.00000000 </v>
   <v>      -0.33333333       0.33333333       0.00000000 </v>
   <v>       0.50000000       0.50000000       0.00000000 </v>
   <v>       0.50000000       0.33333333       0.16666667 </v>
   <v>      -0.33333333       0.33333333       0.16666667 </v>
   <v>      -0.33333333       0.50000000       0.16666667 </v>
   <v>       0.00000000       0.00000000       0.00000000 </v>
   <v>       0.02173913       0.00000000       0.02173913 </v>
   <v>       0.04347826       0.00000000       0.04347826 </v>
   <v>       0.06521739       0.00000000       0.06521739 </v>
   <v>       0.08695652       0.00000000       0.08695652 </v>
   <v>       0.10869565       0.00000000       0.10869565 </v>
   <v>       0.13043478       0.00000000       0.13043478 </v>
   <v>       0.15217391       0.00000000       0.15217391 </v>
   <v>       0.17391304       0.00000000       0.17391304 </v>
   <v>       0.19565217       0.00000000       0.19565217 </v>
   <v>       0.21739130       0.00000000       0.21739130 </v>
   <v>       0.23913043       0.00000000       0.23913043 </v>
   <v>       0.26086957       0.00000000       0.26086957 </v>
   <v>       0.28260870       0.00000000       0.28260870 </v>
   <v>       0.30434783       0.00000000       0.30434783 </v>
   <v>       0.32608696       0.00000000       0.32608696 </v>
   <v>       0.34782609       0.00000000       0.34782609 </v>
   <v>       0.36956522       0.00000000       0.36956522 </v>
   <v>       0.39130435       0.00000000       0.39130435 </v>
   <v>       0.41304348       0.00000000       0.41304348 </v>
   <v>       0.43478261       0.00000000       0.43478261 </v>
   <v>       0.45652174       0.00000000       0.45652174 </v>
   <v>       0.47826087       0.00000000       0.47826087 </v>
   <v>       0.50000000       0.00000000       0.50000000 </v>
   <v>       0.50000000       0.00000000       0.50000000 </v>
   <v>       0.50000000       0.02083333       0.52083333 </v>
   <v>       0.50000000       0.04166667       0.54166667 </v>
   <v>       0.50000000       0.06250000       0.56250000 </v>
   <v>       0.50000000       0.08333333       0.58333333 </v>
   <v>       0.50000000       0.10416667       0.60416667 </v>
   <v>       0.50000000       0.12500000       0.62500000 </v>
   <v>       0.50000000       0.14583333       0.64583333 </v>
   <v>       0.50000000       0.16666667       0.66666667 </v>
   <v>       0.50000000       0.18750000       0.68750000 </v>
   <v>       0.50000000       0.20833333       0.70833333 </v>
   <v>       0.50000000       0.22916667       0.72916667 </v>
   <v>       0.50000000       0.25000000       0.75000000 </v>
   <v>       0.50000000       0.25000000       0.75000000 </v>
   <v>       0.48611111       0.26388889       0.75000000 </v>
   <v>       0.47222222       0.27777778       0.75000000 </v>
   <v>       0.45833333       0.29166667       0.75000000 </v>
   <v>       0.44444444       0.30555556       0.75000000 </v>
   <v>       0.43055556       0.31944444       0.75000000 </v>
   <v>       0.41666667       0.33333333       0.75000000 </v>
   <v>       0.40277778       0.34722222       0.75000000 </v>
   <v>       0.38888889       0.36111111       0.75000000 </v>
   <v>       0.37500000       0.37500000       0.75000000 </v>
   <v>       0.37500000       0.37500000       0.75000000 </v>
   <v>       0.36000000       0.36000000       0.72000000 </v>
   <v>       0.34500000       0.34500000       0.69000000 </v>
   <v>       0.33000000       0.33000000       0.66000000 </v>
   <v>       0.31500000       0.31500000       0.63000000 </v>
   <v>       0.30000000       0.30000000       0.60000000 </v>
   <v>       0.28500000       0.28500000       0.57000000 </v>
   <v>       0.27000000       0.27000000       0.54000000 </v>
   <v>       0.25500000       0.25500000       0.51000000 </v>
   <v>       0.24000000       0.24000000       0.48000000 </v>
   <v>       0.22500000       0.22500000       0.45000000 </v>
   <v>       0.21000000       0.21000000       0.42000000 </v>
   <v>       0.19500000       0.19500000       0.39000000 </v>
   <v>       0.18000000       0.18000000       0.36000000 </v>
   <v>       0.16500000       0.16500000       0.33000000 </v>
   <v>       0.15000000       0.15000000       0.30000000 </v>
   <v>       0.13500000       0.13500000       0.27000000 </v>
   <v>       0.12000000       0.12000000       0.24000000 </v>
   <v>       0.10500000       0.10500000       0.21000000 </v>
   <v>       0.09000000       0.09000000       0.18000000 </v>
   <v>       0.07500000       0.07500000       0.15000000 </v>
   <v>       0.06000000       0.06000000       0.12000000 </v>
   <v>       0.04500000       0.04500000       0.09000000 </v>
   <v>       0.03000000       0.03000000       0.06000000 </v>
   <v>       0.01500000       0.01500000       0.03000000 </v>
   <v>       0.00000000       0.00000000       0.00000000 </v>
   <v>       0.00000000       0.00000000       0.00000000 </v>
   <v>       0.02500000       0.02500000       0.02500000 </v>
   <v>       0.05000000       0.05000000       0.05000000 </v>
   <v>       0.07500000       0.07500000       0.07500000 </v>
   <v>       0.10000000       0.10000000       0.10000000 </v>
   <v>       0.12500000       0.12500000       0.12500000 </v>
   <v>       0.15000000       0.15000000       0.15000000 </v>
   <v>       0.17500000       0.17500000       0.17500000 </v>
   <v>       0.20000000       0.20000000       0.20000000 </v>
   <v>       0.22500000       0.22500000       0.22500000 </v>
   <v>       0.25000000       0.25000000       0.25000000 </v>
   <v>       0.27500000       0.27500000       0.27500000 </v>
   <v>       0.30000000       0.30000000       0.30000000 </v>
   <v>       0.32500000       0.32500000       0.32500000 </v>
   <v>       0.35000000       0.35000000       0.35000000 </v>
   <v>       0.37500000       0.37500000       0.37500000 </v>
   <v>       0.40000000       0.40000000       0.40000000 </v>
   <v>       0.42500000       0.42500000       0.42500000 </v>
   <v>       0.45000000       0.45000000       0.45000000 </v>
   <v>       0.47500000       0.47500000       0.47500000 </v>
   <v>       0.50000000       0.50000000       0.50000000 </v>
   <v>       0.50000000       0.50000000       0.50000000 </v>
   <v>       0.50833333       0.48333333       0.50833333 </v>
   <v>       0.51666667       0.46666667       0.51666667 </v>
   <v>       0.52500000       0.45000000       0.52500000 </v>
   <v>       0.53333333       0.43333333       0.53333333 </v>
   <v>       0.54166667       0.41666667       0.54166667 </v>
   <v>       0.55000000       0.40000000       0.55000000 </v>
   <v>       0.55833333       0.38333333       0.55833333 </v>
   <v>       0.56666667       0.36666667       0.56666667 </v>
   <v>       0.57500000       0.35000000       0.57500000 </v>
   <v>       0.58333333       0.33333333       0.58333333 </v>
   <v>       0.59166667       0.31666667       0.59166667 </v>
   <v>       0.60000000       0.30000000       0.60000000 </v>
   <v>       0.60833333       0.28333333       0.60833333 </v>
   <v>       0.61666667       0.26666667       0.61666667 </v>
   <v>       0.62500000       0.25000000       0.62500000 </v>
   <v>       0.62500000       0.25000000       0.62500000 </v>
   <v>       0.61111111       0.25000000       0.63888889 </v>
   <v>       0.59722222       0.25000000       0.65277778 </v>
   <v>       0.58333333       0.25000000       0.66666667 </v>
   <v>       0.56944444       0.25000000       0.68055556 </v>
   <v>       0.55555556       0.25000000       0.69444444 </v>
   <v>       0.54166667       0.25000000       0.70833333 </v>
   <v>       0.52777778       0.25000000       0.72222222 </v>
   <v>       0.51388889       0.25000000       0.73611111 </v>
   <v>       0.50000000       0.25000000       0.75000000 </v>
   <v>       0.50000000       0.25000000       0.75000000 </v>
   <v>       0.50000000       0.26470588       0.73529412 </v>
   <v>       0.50000000       0.27941176       0.72058824 </v>
   <v>       0.50000000       0.29411765       0.70588235 </v>
   <v>       0.50000000       0.30882353       0.69117647 </v>
   <v>       0.50000000       0.32352941       0.67647059 </v>
   <v>       0.50000000       0.33823529       0.66176471 </v>
   <v>       0.50000000       0.35294118       0.64705882 </v>
   <v>       0.50000000       0.36764706       0.63235294 </v>
   <v>       0.50000000       0.38235294       0.61764706 </v>
   <v>       0.50000000       0.39705882       0.60294118 </v>
   <v>       0.50000000       0.41176471       0.58823529 </v>
   <v>       0.50000000       0.42647059       0.57352941 </v>
   <v>       0.50000000       0.44117647       0.55882353 </v>
   <v>       0.50000000       0.45588235       0.54411765 </v>
   <v>       0.50000000       0.47058824       0.52941176 </v>
   <v>       0.50000000       0.48529412       0.51470588 </v>
   <v>       0.50000000       0.50000000       0.50000000 </v>
   <v>       0.50000000       0.50000000       0.50000000 </v>
   <v>       0.49166667       0.49166667       0.51666667 </v>
   <v>       0.48333333       0.48333333       0.53333333 </v>
   <v>       0.47500000       0.47500000       0.55000000 </v>
   <v>       0.46666667       0.46666667       0.56666667 </v>
   <v>       0.45833333       0.45833333       0.58333333 </v>
   <v>       0.45000000       0.45000000       0.60000000 </v>
   <v>       0.44166667       0.44166667       0.61666667 </v>
   <v>       0.43333333       0.43333333       0.63333333 </v>
   <v>       0.42500000       0.42500000       0.65000000 </v>
   <v>       0.41666667       0.41666667       0.66666667 </v>
   <v>       0.40833333       0.40833333       0.68333333 </v>
   <v>       0.40000000       0.40000000       0.70000000 </v>
   <v>       0.39166667       0.39166667       0.71666667 </v>
   <v>       0.38333333       0.38333333       0.73333333 </v>
   <v>       0.37500000       0.37500000       0.75000000 </v>
   <v>       0.62500000       0.25000000       0.62500000 </v>
   <v>       0.61111111       0.22222222       0.61111111 </v>
   <v>       0.59722222       0.19444444       0.59722222 </v>
   <v>       0.58333333       0.16666667       0.58333333 </v>
   <v>       0.56944444       0.13888889       0.56944444 </v>
   <v>       0.55555556       0.11111111       0.55555556 </v>
   <v>       0.54166667       0.08333333       0.54166667 </v>
   <v>       0.52777778       0.05555556       0.52777778 </v>
   <v>       0.51388889       0.02777778       0.51388889 </v>
   <v>       0.50000000       0.00000000       0.50000000 </v>
  </varray>
  <varray name="weights" >
   <v>       0.00462963 </v>
   <v>       0.03703704 </v>
   <v>       0.03703704 </v>
   <v>       0.01851852 </v>
   <v>       0.02777778 </v>
   <v>       0.11111111 </v>
   <v>       0.11111111 </v>
   <v>       0.11111111 </v>
   <v>       0.05555556 </v>
   <v>       0.02777778 </v>
   <v>       0.11111111 </v>
   <v>       0.05555556 </v>
   <v>       0.01388889 </v>
   <v>       0.11111111 </v>
   <v>       0.11111111 </v>
   <v>       0.05555556 </v>
   <v>       0.00000000 </v>
   <v>       0.00000000 </v>
   <v>       0.00000000 </v>
   <v>       0.00000000 </v>
   <v>       0.00000000 </v>
   <v>       0.00000000 </v>
   <v>       0.00000000 </v>
   <v>       0.00000000 </v>
   <v>       0.00000000 </v>
   <v>       0.00000000 </v>
   <v>       0.00000000 </v>
   <v>       0.00000000 </v>
   <v>       0.00000000 </v>
   <v>       0.00000000 </v>
   <v>       0.00000000 </v>
   <v>       0.00000000 </v>
   <v>       0.00000000 </v>
   <v>       0.00000000 </v>
   <v>       0.00000000 </v>
   <v>       0.00000000 </v>
   <v>       0.00000000 </v>
   <v>       0.00000000 </v>
   <v>       0.00000000 </v>
   <v>       0.00000000 </v>
   <v>       0.00000000 </v>
   <v>       0.00000000 </v>
   <v>       0.00000000 </v>
   <v>       0.00000000 </v>
   <v>       0.00000000 </v>
   <v>       0.00000000 </v>
   <v>       0.00000000 </v>
   <v>       0.00000000 </v>
   <v>       0.00000000 </v>
   <v>       0.00000000 </v>
   <v>       0.00000000 </v>
   <v>       0.00000000 </v>
   <v>       0.00000000 </v>
   <v>       0.00000000 </v>
   <v>       0.00000000 </v>
   <v>       0.00000000 </v>
   <v>       0.00000000 </v>
   <v>       0.00000000 </v>
   <v>       0.00000000 </v>
   <v>       0.00000000 </v>
   <v>       0.00000000 </v>
   <v>       0.00000000 </v>
   <v>       0.00000000 </v>
   <v>       0.00000000 </v>
   <v>       0.00000000 </v>
   <v>       0.00000000 </v>
   <v>       0.00000000 </v>
   <v>       0.00000000 </v>
   <v>       0.00000000 </v>
   <v>       0.00000000 </v>
   <v>       0.00000000 </v>
   <v>       0.00000000 </v>
   <v>       0.00000000 </v>
   <v>       0.00000000 </v>
   <v>       0.00000000 </v>
   <v>       0.00000000 </v>
   <v>       0.00000000 </v>
   <v>       0.00000000 </v>
   <v>       0.00000000 </v>
   <v>       0.00000000 </v>
   <v>       0.00000000 </v>
   <v>       0.00000000 </v>
   <v>       0.00000000 </v>
   <v>       0.00000000 </v>
   <v>       0.00000000 </v>
   <v>       0.00000000 </v>
   <v>       0.00000000 </v>
   <v>       0.00000000 </v>
   <v>       0.00000000 </v>
   <v>       0.00000000 </v>
   <v>       0.00000000 </v>
   <v>       0.00000000 </v>
   <v>       0.00000000 </v>
   <v>       0.00000000 </v>
   <v>       0.00000000 </v>
   <v>       0.00000000 </v>
   <v>       0.00000000 </v>
   <v>       0.00000000 </v>
   <v>       0.00000000 </v>
   <v>       0.00000000 </v>
   <v>       0.00000000 </v>
   <v>       0.00000000 </v>
   <v>       0.00000000 </v>
   <v>       0.00000000 </v>
   <v>       0.00000000 </v>
   <v>       0.00000000 </v>
   <v>       0.00000000 </v>
   <v>       0.00000000 </v>
   <v>       0.00000000 </v>
   <v>       0.00000000 </v>
   <v>       0.00000000 </v>
   <v>       0.00000000 </v>
   <v>       0.00000000 </v>
   <v>       0.00000000 </v>
   <v>       0.00000000 </v>
   <v>       0.00000000 </v>
   <v>       0.00000000 </v>
   <v>       0.00000000 </v>
   <v>       0.00000000 </v>
   <v>       0.00000000 </v>
   <v>       0.00000000 </v>
   <v>       0.00000000 </v>
   <v>       0.00000000 </v>
   <v>       0.00000000 </v>
   <v>       0.00000000 </v>
   <v>       0.00000000 </v>
   <v>       0.00000000 </v>
   <v>       0.00000000 </v>
   <v>       0.00000000 </v>
   <v>       0.00000000 </v>
   <v>       0.00000000 </v>
   <v>       0.00000000 </v>
   <v>       0.00000000 </v>
   <v>       0.00000000 </v>
   <v>       0.00000000 </v>
   <v>       0.00000000 </v>
   <v>       0.00000000 </v>
   <v>       0.00000000 </v>
   <v>       0.00000000 </v>
   <v>       0.00000000 </v>
   <v>       0.00000000 </v>
   <v>       0.00000000 </v>
   <v>       0.00000000 </v>
   <v>       0.00000000 </v>
   <v>       0.00000000 </v>
   <v>       0.00000000 </v>
   <v>       0.00000000 </v>
   <v>       0.00000000 </v>
   <v>       0.00000000 </v>
   <v>       0.00000000 </v>
   <v>       0.00000000 </v>
   <v>       0.00000000 </v>
   <v>       0.00000000 </v>
   <v>       0.00000000 </v>
   <v>       0.00000000 </v>
   <v>       0.00000000 </v>
   <v>       0.00000000 </v>
   <v>       0.00000000 </v>
   <v>       0.00000000 </v>
   <v>       0.00000000 </v>
   <v>       0.00000000 </v>
   <v>       0.00000000 </v>
   <v>       0.00000000 </v>
   <v>       0.00000000 </v>
   <v>       0.00000000 </v>
   <v>       0.00000000 </v>
   <v>       0.00000000 </v>
   <v>       0.00000000 </v>
   <v>       0.00000000 </v>
   <v>       0.00000000 </v>
   <v>       0.00000000 </v>
   <v>       0.00000000 </v>
   <v>       0.00000000 </v>
   <v>       0.00000000 </v>
   <v>       0.00000000 </v>
   <v>       0.00000000 </v>
   <v>       0.00000000 </v>
   <v>       0.00000000 </v>
   <v>       0.00000000 </v>
   <v>       0.00000000 </v>
  </varray>
 </kpoints>
 <parameters>
  <separator name="general" >
   <i type="string" name="SYSTEM">unknown system</i>
   <i type="logical" name="LCOMPAT"> F  </i>
  </separator>
  <separator name="electronic" >
   <i type="string" name="PREC">accura</i>
   <i name="ENMAX">    680.00000000</i>
   <i name="ENAUG">   1360.00000000</i>
   <i name="EDIFF">      0.00001000</i>
   <i type="int" name="IALGO">    58</i>
   <i type="int" name="IWAVPR">    10</i>
   <i type="int" name="NBANDS">    11</i>
   <i type="int" name="NBANDSLOW">    -1</i>
   <i type="int" name="NBANDSHIGH">    -1</i>
   <i name="NELECT">      8.00000000</i>
   <i type="int" name="TURBO">     0</i>
   <i type="int" name="IRESTART">     0</i>
   <i type="int" name="NREBOOT">     0</i>
   <i type="int" name="NMIN">     0</i>
   <i name="EREF">      0.00000000</i>
   <separator name="electronic smearing" >
    <i type="int" name="ISMEAR">     0</i>
    <i name="SIGMA">      0.01000000</i>
    <i name="KSPACING">      0.50000000</i>
    <i type="logical" name="KGAMMA"> T  </i>
    <i type="logical" name="KBLOWUP"> T  </i>
   </separator>
   <separator name="electronic projectors" >
    <i type="logical" name="LREAL"> T  </i>
    <v name="ROPT">     -0.00025000</v>
    <i type="int" name="LMAXPAW">  -100</i>
    <i type="int" name="LMAXMIX">     2</i>
    <i type="logical" name="NLSPLINE"> F  </i>
   </separator>
   <separator name="electronic startup" >
    <i type="int" name="ISTART">     0</i>
    <i type="int" name="ICHARG">     2</i>
    <i type="int" name="INIWAV">     1</i>
   </separator>
   <separator name="electronic spin" >
    <i type="int" name="ISPIN">     1</i>
    <i type="logical" name="LNONCOLLINEAR"> F  </i>
    <v name="MAGMOM">      1.00000000      1.00000000</v>
    <i name="NUPDOWN">     -1.00000000</i>
    <i type="logical" name="LSORBIT"> F  </i>
    <v name="SAXIS">      0.00000000      0.00000000      1.00000000</v>
    <i type="logical" name="LSPIRAL"> F  </i>
    <v name="QSPIRAL">      0.00000000      0.00000000      0.00000000</v>
    <i type="logical" name="LZEROZ"> F  </i>
   </separator>
   <separator name="electronic exchange-correlation" >
    <i type="logical" name="LASPH"> T  </i>
    <i type="logical" name="LMETAGGA"> F  </i>
   </separator>
   <separator name="electronic convergence" >
    <i type="int" name="NELM">   200</i>
    <i type="int" name="NELMDL">    -5</i>
    <i type="int" name="NELMIN">     5</i>
    <i name="ENINI">    680.00000000</i>
    <separator name="electronic convergence detail" >
     <i type="logical" name="LDIAG"> T  </i>
     <i type="logical" name="LSUBROT"> F  </i>
     <i name="WEIMIN">      0.00000000</i>
     <i name="EBREAK">      0.00000023</i>
     <i name="DEPER">      0.30000000</i>
     <i type="int" name="NRMM">     4</i>
     <i name="TIME">      0.40000000</i>
    </separator>
   </separator>
   <separator name="electronic mixer" >
    <i name="AMIX">      0.40000000</i>
    <i name="BMIX">      1.00000000</i>
    <i name="AMIN">      0.10000000</i>
    <i name="AMIX_MAG">      1.60000000</i>
    <i name="BMIX_MAG">      1.00000000</i>
    <separator name="electronic mixer details" >
     <i type="int" name="IMIX">     4</i>
     <i type="logical" name="MIXFIRST"> F  </i>
     <i type="int" name="MAXMIX">   -45</i>
     <i name="WC">    100.00000000</i>
     <i type="int" name="INIMIX">     1</i>
     <i type="int" name="MIXPRE">     1</i>
     <i type="int" name="MREMOVE">     5</i>
    </separator>
   </separator>
   <separator name="electronic dipolcorrection" >
    <i type="logical" name="LDIPOL"> F  </i>
    <i type="logical" name="LMONO"> F  </i>
    <i type="int" name="IDIPOL">     0</i>
    <i name="EPSILON">      1.00000000</i>
    <v name="DIPOL">   -100.00000000   -100.00000000   -100.00000000</v>
    <i name="EFIELD">      0.00000000</i>
   </separator>
  </separator>
  <separator name="grids" >
   <i type="int" name="NGX">    36</i>
   <i type="int" name="NGY">    36</i>
   <i type="int" name="NGZ">    36</i>
   <i type="int" name="NGXF">    72</i>
   <i type="int" name="NGYF">    72</i>
   <i type="int" name="NGZF">    72</i>
   <i type="logical" name="ADDGRID"> F  </i>
  </separator>
  <separator name="ionic" >
   <i type="int" name="NSW">     0</i>
   <i type="int" name="IBRION">    -1</i>
   <i type="int" name="MDALGO">     0</i>
   <i type="int" name="ISIF">     3</i>
   <i name="PSTRESS">      0.00000000</i>
   <i name="EDIFFG">     -0.02000000</i>
   <i type="int" name="NFREE">     1</i>
   <i name="POTIM">      0.50000000</i>
   <i name="SMASS">     -3.00000000</i>
   <i name="SCALEE">      1.00000000</i>
  </separator>
  <separator name="ionic md" >
   <i name="TEBEG">      0.00010000</i>
   <i name="TEEND">      0.00010000</i>
   <i type="int" name="NBLOCK">     1</i>
   <i type="int" name="KBLOCK">     1</i>
   <i type="int" name="NPACO">   256</i>
   <i name="APACO">     16.00000000</i>
  </separator>
  <separator name="symmetry" >
   <i type="int" name="ISYM">     3</i>
   <i name="SYMPREC">      0.00001000</i>
  </separator>
  <separator name="dos" >
   <i type="int" name="LORBIT">    11</i>
   <v name="RWIGS">     -1.00000000</v>
   <i type="int" name="NEDOS">   301</i>
   <i name="EMIN">     10.00000000</i>
   <i name="EMAX">    -10.00000000</i>
   <i name="EFERMI">      0.00000000</i>
  </separator>
  <separator name="writing" >
   <i type="int" name="NWRITE">     2</i>
   <i type="logical" name="LWAVE"> F  </i>
   <i type="logical" name="LDOWNSAMPLE"> F  </i>
   <i type="logical" name="LCHARG"> F  </i>
   <i type="logical" name="LPARD"> F  </i>
   <i type="logical" name="LVTOT"> T  </i>
   <i type="logical" name="LVHAR"> F  </i>
   <i type="logical" name="LELF"> T  </i>
   <i type="logical" name="LOPTICS"> F  </i>
   <v name="STM">      0.00000000      0.00000000      0.00000000      0.00000000      0.00000000      0.00000000      0.00000000</v>
  </separator>
  <separator name="performance" >
   <i type="int" name="NPAR">     1</i>
   <i type="int" name="NSIM">     4</i>
   <i type="int" name="NBLK">    -1</i>
   <i type="logical" name="LPLANE"> T  </i>
   <i type="logical" name="LSCALAPACK"> F  </i>
   <i type="logical" name="LSCAAWARE"> F  </i>
   <i type="logical" name="LSCALU"> F  </i>
   <i type="logical" name="LASYNC"> F  </i>
   <i type="logical" name="LORBITALREAL"> F  </i>
  </separator>
  <separator name="miscellaneous" >
   <i type="int" name="IDIOT">     3</i>
   <i type="int" name="PHON_NSTRUCT">    -1</i>
   <i type="logical" name="LMUSIC"> F  </i>
   <v name="POMASS">     28.08500000</v>
   <v name="DARWINR">      0.00000000</v>
   <v name="DARWINV">      1.00000000</v>
   <i type="logical" name="LCORR"> T  </i>
  </separator>
  <i type="logical" name="GGA_COMPAT"> T  </i>
  <i type="logical" name="LBERRY"> F  </i>
  <i type="int" name="ICORELEVEL">     0</i>
  <i type="logical" name="LDAU"> F  </i>
  <i type="int" name="I_CONSTRAINED_M">     0</i>
  <separator name="electronic exchange-correlation" >
   <i type="string" name="GGA">PE</i>
   <i type="int" name="VOSKOWN">     0</i>
   <i type="logical" name="LHFCALC"> T  </i>
   <i type="string" name="PRECFOCK">fast</i>
   <i type="logical" name="LSYMGRAD"> F  </i>
   <i type="logical" name="LHFONE"> F  </i>
   <i type="logical" name="LRHFCALC"> F  </i>
   <i type="logical" name="LTHOMAS"> F  </i>
   <i type="logical" name="LMODELHF"> F  </i>
   <i type="logical" name="LFOCKACE"> T  </i>
   <i name="ENCUT4O">     -1.00000000</i>
   <i type="int" name="EXXOEP">     0</i>
   <i type="int" name="FOURORBIT">     0</i>
   <i name="AEXX">      0.25000000</i>
   <i name="HFALPHA">     -1.00000000</i>
   <i name="MCALPHA">      0.00000000</i>
   <i name="ALDAX">      0.75000000</i>
   <i name="AGGAX">      0.75000000</i>
   <i name="ALDAC">      1.00000000</i>
   <i name="AGGAC">      1.00000000</i>
   <i type="int" name="NKREDX">     1</i>
   <i type="int" name="NKREDY">     1</i>
   <i type="int" name="NKREDZ">     1</i>
   <i type="logical" name="SHIFTRED"> F  </i>
   <i type="logical" name="ODDONLY"> F  </i>
   <i type="logical" name="EVENONLY"> F  </i>
   <i type="int" name="LMAXFOCK">     4</i>
   <i type="int" name="NMAXFOCKAE">     1</i>
   <i type="logical" name="LFOCKAEDFT"> F  </i>
   <i name="HFSCREEN">      0.20000000</i>
   <i name="HFSCREENC">      0.20000000</i>
   <i type="int" name="NBANDSGWLOW">     1</i>
  </separator>
  <separator name="vdW DFT" >
   <i type="logical" name="LUSE_VDW"> F  </i>
   <i name="Zab_VDW">     -0.84910000</i>
   <i name="PARAM1">      0.12340000</i>
   <i name="PARAM2">      1.00000000</i>
   <i name="PARAM3">      0.00000000</i>
  </separator>
  <separator name="model GW" >
   <i type="int" name="MODEL_GW">     0</i>
   <i name="MODEL_EPS0">     12.26648953</i>
   <i name="MODEL_ALPHA">      1.00000000</i>
  </separator>
  <separator name="linear response parameters" >
   <i type="logical" name="LEPSILON"> F  </i>
   <i type="logical" name="LRPA"> F  </i>
   <i type="logical" name="LNABLA"> F  </i>
   <i type="logical" name="LVEL"> F  </i>
   <i type="int" name="KINTER">     0</i>
   <i name="CSHIFT">      0.10000000</i>
   <i name="OMEGAMAX">     -1.00000000</i>
   <i name="DEG_THRESHOLD">      0.00200000</i>
   <i name="RTIME">     -0.10000000</i>
   <i name="WPLASMAI">      0.00000000</i>
   <v name="DFIELD">      0.00000000      0.00000000      0.00000000</v>
   <v name="WPLASMA">      0.00000000      0.00000000      0.00000000      0.00000000      0.00000000      0.00000000      0.00000000      0.00000000      0.00000000</v>
  </separator>
  <separator name="orbital magnetization" >
   <i type="logical" name="NUCIND"> F  </i>
   <v name="MAGPOS">      0.00000000      0.00000000      0.00000000</v>
   <i type="logical" name="LNICSALL"> T  </i>
   <i type="logical" name="ORBITALMAG"> F  </i>
   <i type="logical" name="LMAGBLOCH"> F  </i>
   <i type="logical" name="LCHIMAG"> F  </i>
   <i type="logical" name="LGAUGE"> T  </i>
   <i type="int" name="MAGATOM">     0</i>
   <v name="MAGDIPOL">      0.00000000      0.00000000      0.00000000</v>
   <v name="AVECCONST">      0.00000000      0.00000000      0.00000000</v>
  </separator>
  <separator name="response functions" >
   <i type="logical" name="LFINITE_TEMPERATURE"> F  </i>
   <i type="logical" name="LADDER"> F  </i>
   <i type="logical" name="LRPAFORCE"> F  </i>
   <i type="logical" name="LFXC"> F  </i>
   <i type="logical" name="LHARTREE"> T  </i>
   <i type="int" name="IBSE">     0</i>
   <v type="int" name="KPOINT">    -1     0     0     0</v>
   <i type="logical" name="LTCTC"> F  </i>
   <i type="logical" name="LTCTE"> F  </i>
   <i type="logical" name="LTETE"> F  </i>
   <i type="logical" name="LTRIPLET"> F  </i>
   <i type="logical" name="LFXCEPS"> F  </i>
   <i type="logical" name="LFXHEG"> F  </i>
   <i type="int" name="NATURALO">     2</i>
   <i type="logical" name="LHOLEGF"> F  </i>
   <i type="logical" name="L2ORDER"> F  </i>
   <i type="logical" name="LDMP1"> F  </i>
   <i type="logical" name="LMP2LT"> F  </i>
   <i type="logical" name="LSMP2LT"> F  </i>
   <i type="logical" name="LGWLF"> F  </i>
   <i name="ENCUTGW">     -2.00000000</i>
   <i name="ENCUTGWSOFT">     -2.00000000</i>
   <i name="ENCUTLF">     -1.00000000</i>
   <i type="logical" name="LESF_SPLINES"> F  </i>
   <i type="int" name="LMAXMP2">    -1</i>
   <i name="SCISSOR">      0.00000000</i>
   <i type="int" name="NOMEGA">     0</i>
   <i type="int" name="NOMEGAR">     0</i>
   <i type="int" name="NBANDSGW">    -1</i>
   <i type="int" name="NBANDSO">    -1</i>
   <i type="int" name="NBANDSV">    -1</i>
   <i type="int" name="NELM">   200</i>
   <i type="int" name="NELMHF">     1</i>
   <i type="int" name="DIM">     3</i>
   <i type="int" name="IESPILON">     4</i>
   <i type="int" name="ANTIRES">     0</i>
   <i name="OMEGAMAX">    -30.00000000</i>
   <i name="OMEGAMIN">    -30.00000000</i>
   <i name="OMEGATL">   -200.00000000</i>
   <i type="int" name="OMEGAGRID">     0</i>
   <i name="CSHIFT">     -0.10000000</i>
   <i type="logical" name="LSELFENERGY"> F  </i>
   <i type="logical" name="LSPECTRAL"> F  </i>
   <i type="logical" name="LSPECTRALGW"> F  </i>
   <i type="logical" name="LSINGLES"> F  </i>
   <i type="logical" name="LFERMIGW"> F  </i>
   <i type="logical" name="ODDONLYGW"> F  </i>
   <i type="logical" name="EVENONLYGW"> F  </i>
   <i type="int" name="NKREDLFX">     1</i>
   <i type="int" name="NKREDLFY">     1</i>
   <i type="int" name="NKREDLFZ">     1</i>
   <i type="int" name="MAXMEM">  2800</i>
   <i type="int" name="TELESCOPE">     0</i>
   <i type="int" name="NTAUPAR">    -1</i>
   <i type="int" name="NOMEGAPAR">    -1</i>
   <i name="DAMP_NEWTON">      0.80000001</i>
   <i name="LAMBDA">      1.00000000</i>
  </separator>
  <separator name="External order field" >
   <i name="OFIELD_KAPPA">      0.00000000</i>
   <v name="OFIELD_K">      0.00000000      0.00000000      0.00000000</v>
   <i name="OFIELD_Q6_NEAR">      0.00000000</i>
   <i name="OFIELD_Q6_FAR">      0.00000000</i>
   <i name="OFIELD_A">      0.00000000</i>
  </separator>
 </parameters>
 <atominfo>
  <atoms>       2 </atoms>
  <types>       1 </types>
  <array name="atoms" >
   <dimension dim="1">ion</dimension>
   <field type="string">element</field>
   <field type="int">atomtype</field>
   <set>
    <rc><c>Si</c><c>   1</c></rc>
    <rc><c>Si</c><c>   1</c></rc>
   </set>
  </array>
  <array name="atomtypes" >
   <dimension dim="1">type</dimension>
   <field type="int">atomspertype</field>
   <field type="string">element</field>
   <field>mass</field>
   <field>valence</field>
   <field type="string">pseudopotential</field>
   <set>
    <rc><c>   2</c><c>Si</c><c>     28.08500000</c><c>      4.00000000</c><c>  PAW_PBE Si 05Jan2001                  </c></rc>
   </set>
  </array>
 </atominfo>
 <structure name="initialpos" >
  <crystal>
   <varray name="basis" >
    <v>       3.34889800       0.00000000       1.93348700 </v>
    <v>       1.11629900       3.15737200       1.93348700 </v>
    <v>       0.00000000       0.00000000       3.86697500 </v>
   </varray>
   <i name="volume">     40.88829843 </i>
   <varray name="rec_basis" >
    <v>       0.29860569      -0.10557300       0.00000000 </v>
    <v>       0.00000000       0.31671909       0.00000000 </v>
    <v>      -0.14930281      -0.10557302       0.25860007 </v>
   </varray>
  </crystal>
  <varray name="positions" >
   <v>       0.25000000       0.25000000       0.25000000 </v>
   <v>       0.00000000       0.00000000       0.00000000 </v>
  </varray>
 </structure>
 <calculation>
  <scstep>
   <time name="total">    3.83    3.86</time>
   <energy>
    <i name="alphaZ">      3.29317992 </i>
    <i name="ewald">   -226.94489173 </i>
    <i name="hartreedc">    -11.32339116 </i>
    <i name="XCdc">    -18.68518031 </i>
    <i name="pawpsdc">    176.24759923 </i>
    <i name="pawaedc">   -391.62992928 </i>
    <i name="eentropy">     -0.00032615 </i>
    <i name="bandstr">     16.99267159 </i>
    <i name="atom">    203.99906502 </i>
    <i name="e_fr_energy">   -248.05120287 </i>
    <i name="e_wo_entrp">   -248.05087672 </i>
    <i name="e_0_energy">   -248.05103980 </i>
   </energy>
  </scstep>
  <scstep>
   <time name="total">    4.48    4.51</time>
   <energy>
    <i name="e_fr_energy">   -266.78852488 </i>
    <i name="e_wo_entrp">   -266.78852488 </i>
    <i name="e_0_energy">   -266.78852488 </i>
   </energy>
  </scstep>
  <scstep>
   <time name="total">    4.36    4.39</time>
   <energy>
    <i name="e_fr_energy">   -267.46352053 </i>
    <i name="e_wo_entrp">   -267.46352053 </i>
    <i name="e_0_energy">   -267.46352053 </i>
   </energy>
  </scstep>
  <scstep>
   <time name="total">    4.21    4.24</time>
   <energy>
    <i name="e_fr_energy">   -267.46917222 </i>
    <i name="e_wo_entrp">   -267.46917222 </i>
    <i name="e_0_energy">   -267.46917222 </i>
   </energy>
  </scstep>
  <scstep>
   <time name="total">  273.45  278.80</time>
   <energy>
    <i name="e_fr_energy">    -12.91840757 </i>
    <i name="e_wo_entrp">    -12.91840757 </i>
    <i name="e_0_energy">    -12.91840757 </i>
   </energy>
  </scstep>
  <scstep>
   <time name="total">  582.71  594.27</time>
   <energy>
    <i name="e_fr_energy">    -12.44421668 </i>
    <i name="e_wo_entrp">    -12.44421668 </i>
    <i name="e_0_energy">    -12.44421668 </i>
   </energy>
  </scstep>
  <scstep>
   <time name="total">  525.29  533.49</time>
   <energy>
    <i name="e_fr_energy">    -12.53620310 </i>
    <i name="e_wo_entrp">    -12.53620310 </i>
    <i name="e_0_energy">    -12.53620310 </i>
   </energy>
  </scstep>
  <scstep>
   <time name="total">  447.49  448.43</time>
   <energy>
    <i name="e_fr_energy">    -12.55762612 </i>
    <i name="e_wo_entrp">    -12.55762612 </i>
    <i name="e_0_energy">    -12.55762612 </i>
   </energy>
  </scstep>
  <scstep>
   <time name="total">  444.09  445.28</time>
   <energy>
    <i name="e_fr_energy">    -12.56323118 </i>
    <i name="e_wo_entrp">    -12.56323118 </i>
    <i name="e_0_energy">    -12.56323118 </i>
   </energy>
  </scstep>
  <scstep>
   <time name="total">  576.83  590.59</time>
   <energy>
    <i name="e_fr_energy">    -12.56396518 </i>
    <i name="e_wo_entrp">    -12.56396518 </i>
    <i name="e_0_energy">    -12.56396518 </i>
   </energy>
  </scstep>
  <scstep>
   <time name="total">  585.83  601.97</time>
   <energy>
    <i name="e_fr_energy">    -12.56403599 </i>
    <i name="e_wo_entrp">    -12.56403599 </i>
    <i name="e_0_energy">    -12.56403599 </i>
   </energy>
  </scstep>
  <scstep>
   <time name="total">  658.88  680.70</time>
   <energy>
    <i name="e_fr_energy">    -12.56404739 </i>
    <i name="e_wo_entrp">    -12.56404739 </i>
    <i name="e_0_energy">    -12.56404739 </i>
   </energy>
  </scstep>
  <scstep>
   <time name="total">  821.57  843.61</time>
   <energy>
    <i name="alphaZ">      3.29317992 </i>
    <i name="ewald">   -226.94489173 </i>
    <i name="hartreedc">    -15.26605944 </i>
    <i name="XCdc">    -14.44027025 </i>
    <i name="pawpsdc">   1627.05583002 </i>
    <i name="pawaedc">  -1599.40708613 </i>
    <i name="eentropy">     -0.00000000 </i>
    <i name="bandstr">     -2.08578474 </i>
    <i name="atom">    203.99906502 </i>
    <i name="e_fr_energy">    -12.56405026 </i>
    <i name="e_wo_entrp">    -12.56405026 </i>
    <i name="e_0_energy">    -12.56405026 </i>
   </energy>
  </scstep>
  <structure>
   <crystal>
    <varray name="basis" >
     <v>       3.34889800       0.00000000       1.93348700 </v>
     <v>       1.11629900       3.15737200       1.93348700 </v>
     <v>       0.00000000       0.00000000       3.86697500 </v>
    </varray>
    <i name="volume">     40.88829843 </i>
    <varray name="rec_basis" >
     <v>       0.29860569      -0.10557300       0.00000000 </v>
     <v>       0.00000000       0.31671909       0.00000000 </v>
     <v>      -0.14930281      -0.10557302       0.25860007 </v>
    </varray>
   </crystal>
   <varray name="positions" >
    <v>       0.25000000       0.25000000       0.25000000 </v>
    <v>       0.00000000       0.00000000       0.00000000 </v>
   </varray>
  </structure>
  <varray name="forces" >
   <v>              NaN              NaN              NaN </v>
   <v>              NaN              NaN              NaN </v>
  </varray>
  <varray name="stress" >
   <v>              NaN              NaN              NaN </v>
   <v>              NaN              NaN              NaN </v>
   <v>              NaN              NaN              NaN </v>
  </varray>
  <energy>
   <i name="e_fr_energy">    -12.56405026 </i>
   <i name="e_wo_entrp">    -12.56405026 </i>
   <i name="e_0_energy">    -12.56405026 </i>
  </energy>
  <time name="totalsc"> 5095.45 5196.92</time>
  <eigenvalues>
   <array>
    <dimension dim="1">band</dimension>
    <dimension dim="2">kpoint</dimension>
    <dimension dim="3">spin</dimension>
    <field>eigene</field>
    <field>occ</field>
    <set>
     <set comment="spin 1">
      <set comment="kpoint 1">
       <r>   -7.8848    1.0000 </r>
       <r>    5.2578    1.0000 </r>
       <r>    5.2578    1.0000 </r>
       <r>    5.2578    1.0000 </r>
       <r>    8.5896    0.0000 </r>
       <r>    8.5896    0.0000 </r>
       <r>    8.5896    0.0000 </r>
       <r>    9.3407    0.0000 </r>
       <r>   13.9834    0.0000 </r>
       <r>   14.0463    0.0000 </r>
       <r>   14.0463    0.0000 </r>
      </set>
      <set comment="kpoint 2">
       <r>   -7.4914    1.0000 </r>
       <r>    2.7164    1.0000 </r>
       <r>    4.7935    1.0000 </r>
       <r>    4.7935    1.0000 </r>
       <r>    8.3146    0.0000 </r>
       <r>    9.2656    0.0000 </r>
       <r>    9.2656    0.0000 </r>
       <r>   11.5356    0.0000 </r>
       <r>   13.3530    0.0000 </r>
       <r>   13.3530    0.0000 </r>
       <r>   15.1983    0.0000 </r>
      </set>
      <set comment="kpoint 3">
       <r>   -6.3844    1.0000 </r>
       <r>   -0.5524    1.0000 </r>
       <r>    4.1899    1.0000 </r>
       <r>    4.1899    1.0000 </r>
       <r>    7.6782    0.0000 </r>
       <r>    9.5935    0.0000 </r>
       <r>    9.5935    0.0000 </r>
       <r>   14.0604    0.0000 </r>
       <r>   14.2992    0.0000 </r>
       <r>   14.2992    0.0000 </r>
       <r>   15.2847    0.0000 </r>
      </set>
      <set comment="kpoint 4">
       <r>   -5.3481    1.0000 </r>
       <r>   -2.3559    1.0000 </r>
       <r>    3.9658    1.0000 </r>
       <r>    3.9658    1.0000 </r>
       <r>    7.4370    0.0000 </r>
       <r>    9.4214    0.0000 </r>
       <r>    9.4214    0.0000 </r>
       <r>   13.8663    0.0000 </r>
       <r>   17.0186    0.0000 </r>
       <r>   17.0601    0.0000 </r>
       <r>   17.6895    0.0000 </r>
      </set>
      <set comment="kpoint 5">
       <r>   -7.3572    1.0000 </r>
       <r>    3.0627    1.0000 </r>
       <r>    4.0133    1.0000 </r>
       <r>    4.0133    1.0000 </r>
       <r>    7.6538    0.0000 </r>
       <r>   10.3693    0.0000 </r>
       <r>   10.4518    0.0000 </r>
       <r>   10.4518    0.0000 </r>
       <r>   12.7811    0.0000 </r>
       <r>   14.6109    0.0000 </r>
       <r>   15.8815    0.0000 </r>
      </set>
      <set comment="kpoint 6">
       <r>   -6.4677    1.0000 </r>
       <r>    0.4229    1.0000 </r>
       <r>    3.1656    1.0000 </r>
       <r>    3.4013    1.0000 </r>
       <r>    7.9068    0.0000 </r>
       <r>   10.1623    0.0000 </r>
       <r>   10.6030    0.0000 </r>
       <r>   11.2406    0.0000 </r>
       <r>   15.4475    0.0000 </r>
       <r>   15.4488    0.0000 </r>
       <r>   16.6384    0.0000 </r>
      </set>
      <set comment="kpoint 7">
       <r>   -5.1699    1.0000 </r>
       <r>   -1.9673    1.0000 </r>
       <r>    2.3094    1.0000 </r>
       <r>    3.3563    1.0000 </r>
       <r>    8.0030    0.0000 </r>
       <r>   10.1672    0.0000 </r>
       <r>   10.7706    0.0000 </r>
       <r>   12.6427    0.0000 </r>
       <r>   15.6892    0.0000 </r>
       <r>   16.9219    0.0000 </r>
       <r>   18.1098    0.0000 </r>
      </set>
      <set comment="kpoint 8">
       <r>   -5.5884    1.0000 </r>
       <r>   -1.3088    1.0000 </r>
       <r>    2.0188    1.0000 </r>
       <r>    3.8710    1.0000 </r>
       <r>    8.4400    0.0000 </r>
       <r>   10.1622    0.0000 </r>
       <r>   10.3723    0.0000 </r>
       <r>   13.5283    0.0000 </r>
       <r>   13.6031    0.0000 </r>
       <r>   15.7235    0.0000 </r>
       <r>   17.7550    0.0000 </r>
      </set>
      <set comment="kpoint 9">
       <r>   -6.8498    1.0000 </r>
       <r>    1.2151    1.0000 </r>
       <r>    2.7313    1.0000 </r>
       <r>    4.6561    1.0000 </r>
       <r>    9.0761    0.0000 </r>
       <r>    9.6676    0.0000 </r>
       <r>    9.8413    0.0000 </r>
       <r>   11.8106    0.0000 </r>
       <r>   12.3045    0.0000 </r>
       <r>   15.7393    0.0000 </r>
       <r>   16.6983    0.0000 </r>
      </set>
      <set comment="kpoint 10">
       <r>   -5.8053    1.0000 </r>
       <r>   -0.2398    1.0000 </r>
       <r>    2.6641    1.0000 </r>
       <r>    2.6641    1.0000 </r>
       <r>    6.6125    0.0000 </r>
       <r>    7.9679    0.0000 </r>
       <r>   13.5669    0.0000 </r>
       <r>   13.5669    0.0000 </r>
       <r>   16.1456    0.0000 </r>
       <r>   16.2884    0.0000 </r>
       <r>   19.3614    0.0000 </r>
      </set>
      <set comment="kpoint 11">
       <r>   -4.5312    1.0000 </r>
       <r>   -1.9626    1.0000 </r>
       <r>    1.3881    1.0000 </r>
       <r>    2.5094    1.0000 </r>
       <r>    6.9757    0.0000 </r>
       <r>    8.7066    0.0000 </r>
       <r>   13.7575    0.0000 </r>
       <r>   13.7652    0.0000 </r>
       <r>   17.0426    0.0000 </r>
       <r>   17.1513    0.0000 </r>
       <r>   19.2574    0.0000 </r>
      </set>
      <set comment="kpoint 12">
       <r>   -4.3212    1.0000 </r>
       <r>   -2.1828    1.0000 </r>
       <r>    0.5433    1.0000 </r>
       <r>    2.9919    1.0000 </r>
       <r>    7.5117    0.0000 </r>
       <r>   11.9440    0.0000 </r>
       <r>   12.7712    0.0000 </r>
       <r>   13.3307    0.0000 </r>
       <r>   13.7054    0.0000 </r>
       <r>   13.9383    0.0000 </r>
       <r>   20.7046    0.0000 </r>
      </set>
      <set comment="kpoint 13">
       <r>   -3.3449    1.0000 </r>
       <r>   -3.3449    1.0000 </r>
       <r>    2.1808    1.0000 </r>
       <r>    2.1808    1.0000 </r>
       <r>    6.6057    0.0000 </r>
       <r>    6.6057    0.0000 </r>
       <r>   16.5804    0.0000 </r>
       <r>   16.5804    0.0000 </r>
       <r>   17.4361    0.0000 </r>
       <r>   17.4362    0.0000 </r>
       <r>   19.3997    0.0000 </r>
      </set>
      <set comment="kpoint 14">
       <r>   -5.3854    1.0000 </r>
       <r>   -0.9379    1.0000 </r>
       <r>    1.4608    1.0000 </r>
       <r>    2.8301    1.0000 </r>
       <r>    8.8471    0.0000 </r>
       <r>    9.7562    0.0000 </r>
       <r>   10.3361    0.0000 </r>
       <r>   13.3447    0.0000 </r>
       <r>   15.3393    0.0000 </r>
       <r>   16.2997    0.0000 </r>
       <r>   19.5145    0.0000 </r>
      </set>
      <set comment="kpoint 15">
       <r>   -4.3110    1.0000 </r>
       <r>   -2.2568    1.0000 </r>
       <r>    0.9753    1.0000 </r>
       <r>    2.3301    1.0000 </r>
       <r>    9.3673    0.0000 </r>
       <r>    9.6098    0.0000 </r>
       <r>   12.2849    0.0000 </r>
       <r>   12.7723    0.0000 </r>
       <r>   13.8571    0.0000 </r>
       <r>   17.5709    0.0000 </r>
       <r>   18.3861    0.0000 </r>
      </set>
      <set comment="kpoint 16">
       <r>   -3.2173    1.0000 </r>
       <r>   -3.2173    1.0000 </r>
       <r>    1.3751    1.0000 </r>
       <r>    1.3751    1.0000 </r>
       <r>    8.7362    0.0000 </r>
       <r>    8.7362    0.0000 </r>
       <r>   13.0125    0.0000 </r>
       <r>   13.0125    0.0000 </r>
       <r>   17.0386    0.0000 </r>
       <r>   17.0389    0.0000 </r>
       <r>   19.4261    0.0000 </r>
      </set>
      <set comment="kpoint 17">
       <r>   -7.8848    1.0000 </r>
       <r>    5.2578    1.0000 </r>
       <r>    5.2578    1.0000 </r>
       <r>    5.2578    1.0000 </r>
       <r>    8.5896    0.0000 </r>
       <r>    8.5896    0.0000 </r>
       <r>    8.5896    0.0000 </r>
       <r>    9.3407    0.0000 </r>
       <r>   13.9834    0.0000 </r>
       <r>   14.0463    0.0000 </r>
       <r>   14.0463    0.0000 </r>
      </set>
      <set comment="kpoint 18">
       <r>   -7.8758    1.0000 </r>
       <r>    5.1993    1.0000 </r>
       <r>    5.2228    1.0000 </r>
       <r>    5.2228    1.0000 </r>
       <r>    8.5668    0.0000 </r>
       <r>    8.6353    0.0000 </r>
       <r>    8.6353    0.0000 </r>
       <r>    9.3968    0.0000 </r>
       <r>   13.9717    0.0000 </r>
       <r>   14.0229    0.0000 </r>
       <r>   14.0560    0.0000 </r>
      </set>
      <set comment="kpoint 19">
       <r>   -7.8488    1.0000 </r>
       <r>    5.0350    1.0000 </r>
       <r>    5.1249    1.0000 </r>
       <r>    5.1249    1.0000 </r>
       <r>    8.5006    0.0000 </r>
       <r>    8.7653    0.0000 </r>
       <r>    8.7653    0.0000 </r>
       <r>    9.5528    0.0000 </r>
       <r>   13.7671    0.0000 </r>
       <r>   14.0848    0.0000 </r>
       <r>   14.1390    0.0000 </r>
      </set>
      <set comment="kpoint 20">
       <r>   -7.8038    1.0000 </r>
       <r>    4.7852    1.0000 </r>
       <r>    4.9765    1.0000 </r>
       <r>    4.9765    1.0000 </r>
       <r>    8.3970    0.0000 </r>
       <r>    8.9670    0.0000 </r>
       <r>    8.9670    0.0000 </r>
       <r>    9.7815    0.0000 </r>
       <r>   13.4786    0.0000 </r>
       <r>   14.1330    0.0000 </r>
       <r>   14.3257    0.0000 </r>
      </set>
      <set comment="kpoint 21">
       <r>   -7.7408    1.0000 </r>
       <r>    4.4741    1.0000 </r>
       <r>    4.7936    1.0000 </r>
       <r>    4.7936    1.0000 </r>
       <r>    8.2640    0.0000 </r>
       <r>    9.2242    0.0000 </r>
       <r>    9.2242    0.0000 </r>
       <r>   10.0448    0.0000 </r>
       <r>   13.1591    0.0000 </r>
       <r>   14.2003    0.0000 </r>
       <r>   14.5747    0.0000 </r>
      </set>
      <set comment="kpoint 22">
       <r>   -7.6599    1.0000 </r>
       <r>    4.1207    1.0000 </r>
       <r>    4.5898    1.0000 </r>
       <r>    4.5898    1.0000 </r>
       <r>    8.1100    0.0000 </r>
       <r>    9.5231    0.0000 </r>
       <r>    9.5231    0.0000 </r>
       <r>   10.2940    0.0000 </r>
       <r>   12.8672    0.0000 </r>
       <r>   14.2868    0.0000 </r>
       <r>   14.8770    0.0000 </r>
      </set>
      <set comment="kpoint 23">
       <r>   -7.5611    1.0000 </r>
       <r>    3.7389    1.0000 </r>
       <r>    4.3753    1.0000 </r>
       <r>    4.3753    1.0000 </r>
       <r>    7.9431    0.0000 </r>
       <r>    9.8531    0.0000 </r>
       <r>    9.8531    0.0000 </r>
       <r>   10.4596    0.0000 </r>
       <r>   12.6782    0.0000 </r>
       <r>   14.3924    0.0000 </r>
       <r>   15.2240    0.0000 </r>
      </set>
      <set comment="kpoint 24">
       <r>   -7.4447    1.0000 </r>
       <r>    3.3377    1.0000 </r>
       <r>    4.1575    1.0000 </r>
       <r>    4.1575    1.0000 </r>
       <r>    7.7699    0.0000 </r>
       <r>   10.2063    0.0000 </r>
       <r>   10.2063    0.0000 </r>
       <r>   10.4650    0.0000 </r>
       <r>   12.6721    0.0000 </r>
       <r>   14.5172    0.0000 </r>
       <r>   15.6081    0.0000 </r>
      </set>
      <set comment="kpoint 25">
       <r>   -7.3106    1.0000 </r>
       <r>    2.9235    1.0000 </r>
       <r>    3.9419    1.0000 </r>
       <r>    3.9419    1.0000 </r>
       <r>    7.5961    0.0000 </r>
       <r>   10.2973    0.0000 </r>
       <r>   10.5771    0.0000 </r>
       <r>   10.5771    0.0000 </r>
       <r>   12.8640    0.0000 </r>
       <r>   14.6609    0.0000 </r>
       <r>   16.0227    0.0000 </r>
      </set>
      <set comment="kpoint 26">
       <r>   -7.1590    1.0000 </r>
       <r>    2.5004    1.0000 </r>
       <r>    3.7320    1.0000 </r>
       <r>    3.7320    1.0000 </r>
       <r>    7.4260    0.0000 </r>
       <r>   10.0175    0.0000 </r>
       <r>   10.9613    0.0000 </r>
       <r>   10.9613    0.0000 </r>
       <r>   13.1940    0.0000 </r>
       <r>   14.8236    0.0000 </r>
       <r>   16.4615    0.0000 </r>
      </set>
      <set comment="kpoint 27">
       <r>   -6.9901    1.0000 </r>
       <r>    2.0715    1.0000 </r>
       <r>    3.5307    1.0000 </r>
       <r>    3.5307    1.0000 </r>
       <r>    7.2632    0.0000 </r>
       <r>    9.6868    0.0000 </r>
       <r>   11.3560    0.0000 </r>
       <r>   11.3560    0.0000 </r>
       <r>   13.6014    0.0000 </r>
       <r>   15.0052    0.0000 </r>
       <r>   16.9187    0.0000 </r>
      </set>
      <set comment="kpoint 28">
       <r>   -6.8041    1.0000 </r>
       <r>    1.6389    1.0000 </r>
       <r>    3.3398    1.0000 </r>
       <r>    3.3398    1.0000 </r>
       <r>    7.1105    0.0000 </r>
       <r>    9.3404    0.0000 </r>
       <r>   11.7588    0.0000 </r>
       <r>   11.7588    0.0000 </r>
       <r>   14.0507    0.0000 </r>
       <r>   15.2055    0.0000 </r>
       <r>   17.3883    0.0000 </r>
      </set>
      <set comment="kpoint 29">
       <r>   -6.6011    1.0000 </r>
       <r>    1.2045    1.0000 </r>
       <r>    3.1610    1.0000 </r>
       <r>    3.1610    1.0000 </r>
       <r>    6.9702    0.0000 </r>
       <r>    8.9966    0.0000 </r>
       <r>   12.1682    0.0000 </r>
       <r>   12.1682    0.0000 </r>
       <r>   14.5228    0.0000 </r>
       <r>   15.4246    0.0000 </r>
       <r>   17.8636    0.0000 </r>
      </set>
      <set comment="kpoint 30">
       <r>   -6.3814    1.0000 </r>
       <r>    0.7696    1.0000 </r>
       <r>    2.9953    1.0000 </r>
       <r>    2.9953    1.0000 </r>
       <r>    6.8440    0.0000 </r>
       <r>    8.6653    0.0000 </r>
       <r>   12.5829    0.0000 </r>
       <r>   12.5829    0.0000 </r>
       <r>   15.0068    0.0000 </r>
       <r>   15.6622    0.0000 </r>
       <r>   18.3360    0.0000 </r>
      </set>
      <set comment="kpoint 31">
       <r>   -6.1452    1.0000 </r>
       <r>    0.3355    1.0000 </r>
       <r>    2.8435    1.0000 </r>
       <r>    2.8435    1.0000 </r>
       <r>    6.7334    0.0000 </r>
       <r>    8.3520    0.0000 </r>
       <r>   13.0021    0.0000 </r>
       <r>   13.0021    0.0000 </r>
       <r>   15.4955    0.0000 </r>
       <r>   15.9183    0.0000 </r>
       <r>   18.7939    0.0000 </r>
      </set>
      <set comment="kpoint 32">
       <r>   -5.8930    1.0000 </r>
       <r>   -0.0965    1.0000 </r>
       <r>    2.7065    1.0000 </r>
       <r>    2.7065    1.0000 </r>
       <r>    6.6398    0.0000 </r>
       <r>    8.0601    0.0000 </r>
       <r>   13.4252    0.0000 </r>
       <r>   13.4252    0.0000 </r>
       <r>   15.9837    0.0000 </r>
       <r>   16.1928    0.0000 </r>
       <r>   19.2255    0.0000 </r>
      </set>
      <set comment="kpoint 33">
       <r>   -5.6249    1.0000 </r>
       <r>   -0.5252    1.0000 </r>
       <r>    2.5845    1.0000 </r>
       <r>    2.5845    1.0000 </r>
       <r>    6.5641    0.0000 </r>
       <r>    7.7915    0.0000 </r>
       <r>   13.8516    0.0000 </r>
       <r>   13.8516    0.0000 </r>
       <r>   16.4674    0.0000 </r>
       <r>   16.4857    0.0000 </r>
       <r>   19.6107    0.0000 </r>
      </set>
      <set comment="kpoint 34">
       <r>   -5.3415    1.0000 </r>
       <r>   -0.9496    1.0000 </r>
       <r>    2.4782    1.0000 </r>
       <r>    2.4782    1.0000 </r>
       <r>    6.5073    0.0000 </r>
       <r>    7.5472    0.0000 </r>
       <r>   14.2810    0.0000 </r>
       <r>   14.2810    0.0000 </r>
       <r>   16.7966    0.0000 </r>
       <r>   16.9433    0.0000 </r>
       <r>   19.7615    0.0000 </r>
      </set>
      <set comment="kpoint 35">
       <r>   -5.0430    1.0000 </r>
       <r>   -1.3685    1.0000 </r>
       <r>    2.3878    1.0000 </r>
       <r>    2.3878    1.0000 </r>
       <r>    6.4703    0.0000 </r>
       <r>    7.3280    0.0000 </r>
       <r>   14.7128    0.0000 </r>
       <r>   14.7128    0.0000 </r>
       <r>   17.1255    0.0000 </r>
       <r>   17.4083    0.0000 </r>
       <r>   19.3059    0.0000 </r>
      </set>
      <set comment="kpoint 36">
       <r>   -4.7301    1.0000 </r>
       <r>   -1.7809    1.0000 </r>
       <r>    2.3135    1.0000 </r>
       <r>    2.3135    1.0000 </r>
       <r>    6.4538    0.0000 </r>
       <r>    7.1339    0.0000 </r>
       <r>   15.1457    0.0000 </r>
       <r>   15.1457    0.0000 </r>
       <r>   17.4725    0.0000 </r>
       <r>   17.8593    0.0000 </r>
       <r>   18.8919    0.0000 </r>
      </set>
      <set comment="kpoint 37">
       <r>   -4.4032    1.0000 </r>
       <r>   -2.1857    1.0000 </r>
       <r>    2.2555    1.0000 </r>
       <r>    2.2555    1.0000 </r>
       <r>    6.4584    0.0000 </r>
       <r>    6.9649    0.0000 </r>
       <r>   15.5770    0.0000 </r>
       <r>   15.5771    0.0000 </r>
       <r>   17.8403    0.0000 </r>
       <r>   18.2938    0.0000 </r>
       <r>   18.4560    0.0000 </r>
      </set>
      <set comment="kpoint 38">
       <r>   -4.0629    1.0000 </r>
       <r>   -2.5820    1.0000 </r>
       <r>    2.2140    1.0000 </r>
       <r>    2.2140    1.0000 </r>
       <r>    6.4849    0.0000 </r>
       <r>    6.8208    0.0000 </r>
       <r>   15.9987    0.0000 </r>
       <r>   15.9990    0.0000 </r>
       <r>   18.0268    0.0000 </r>
       <r>   18.1729    0.0000 </r>
       <r>   18.5360    0.0000 </r>
      </set>
      <set comment="kpoint 39">
       <r>   -3.7100    1.0000 </r>
       <r>   -2.9687    1.0000 </r>
       <r>    2.1891    1.0000 </r>
       <r>    2.1891    1.0000 </r>
       <r>    6.5338    0.0000 </r>
       <r>    6.7013    0.0000 </r>
       <r>   16.3809    0.0000 </r>
       <r>   16.3809    0.0000 </r>
       <r>   17.6380    0.0000 </r>
       <r>   17.6394    0.0000 </r>
       <r>   19.0784    0.0000 </r>
      </set>
      <set comment="kpoint 40">
       <r>   -3.3449    1.0000 </r>
       <r>   -3.3449    1.0000 </r>
       <r>    2.1808    1.0000 </r>
       <r>    2.1808    1.0000 </r>
       <r>    6.6057    0.0000 </r>
       <r>    6.6057    0.0000 </r>
       <r>   16.5804    0.0000 </r>
       <r>   16.5805    0.0000 </r>
       <r>   17.4362    0.0000 </r>
       <r>   17.4371    0.0000 </r>
       <r>   19.4237    0.0000 </r>
      </set>
      <set comment="kpoint 41">
       <r>   -3.3449    1.0000 </r>
       <r>   -3.3449    1.0000 </r>
       <r>    2.1808    1.0000 </r>
       <r>    2.1808    1.0000 </r>
       <r>    6.6057    0.0000 </r>
       <r>    6.6057    0.0000 </r>
       <r>   16.5804    0.0000 </r>
       <r>   16.5805    0.0000 </r>
       <r>   17.4365    0.0000 </r>
       <r>   17.4368    0.0000 </r>
       <r>   19.3009    0.0000 </r>
      </set>
      <set comment="kpoint 42">
       <r>   -3.3422    1.0000 </r>
       <r>   -3.3422    1.0000 </r>
       <r>    2.1581    1.0000 </r>
       <r>    2.1581    1.0000 </r>
       <r>    6.6488    0.0000 </r>
       <r>    6.6488    0.0000 </r>
       <r>   16.5035    0.0000 </r>
       <r>   16.5036    0.0000 </r>
       <r>   17.3343    0.0000 </r>
       <r>   17.3350    0.0000 </r>
       <r>   19.4718    0.0000 </r>
      </set>
      <set comment="kpoint 43">
       <r>   -3.3342    1.0000 </r>
       <r>   -3.3342    1.0000 </r>
       <r>    2.0942    1.0000 </r>
       <r>    2.0942    1.0000 </r>
       <r>    6.7738    0.0000 </r>
       <r>    6.7738    0.0000 </r>
       <r>   16.2412    0.0000 </r>
       <r>   16.2413    0.0000 </r>
       <r>   17.1778    0.0000 </r>
       <r>   17.1781    0.0000 </r>
       <r>   19.2764    0.0000 </r>
      </set>
      <set comment="kpoint 44">
       <r>   -3.3213    1.0000 </r>
       <r>   -3.3213    1.0000 </r>
       <r>    1.9968    1.0000 </r>
       <r>    1.9968    1.0000 </r>
       <r>    6.9734    0.0000 </r>
       <r>    6.9734    0.0000 </r>
       <r>   15.8083    0.0000 </r>
       <r>   15.8084    0.0000 </r>
       <r>   17.0917    0.0000 </r>
       <r>   17.0918    0.0000 </r>
       <r>   19.2451    0.0000 </r>
      </set>
      <set comment="kpoint 45">
       <r>   -3.3043    1.0000 </r>
       <r>   -3.3043    1.0000 </r>
       <r>    1.8768    1.0000 </r>
       <r>    1.8768    1.0000 </r>
       <r>    7.2369    0.0000 </r>
       <r>    7.2369    0.0000 </r>
       <r>   15.2864    0.0000 </r>
       <r>   15.2864    0.0000 </r>
       <r>   17.0554    0.0000 </r>
       <r>   17.0556    0.0000 </r>
       <r>   19.2724    0.0000 </r>
      </set>
      <set comment="kpoint 46">
       <r>   -3.2840    1.0000 </r>
       <r>   -3.2840    1.0000 </r>
       <r>    1.7455    1.0000 </r>
       <r>    1.7455    1.0000 </r>
       <r>    7.5537    0.0000 </r>
       <r>    7.5537    0.0000 </r>
       <r>   14.7277    0.0000 </r>
       <r>   14.7277    0.0000 </r>
       <r>   17.0410    0.0000 </r>
       <r>   17.0411    0.0000 </r>
       <r>   19.3084    0.0000 </r>
      </set>
      <set comment="kpoint 47">
       <r>   -3.2618    1.0000 </r>
       <r>   -3.2618    1.0000 </r>
       <r>    1.6128    1.0000 </r>
       <r>    1.6128    1.0000 </r>
       <r>    7.9144    0.0000 </r>
       <r>    7.9144    0.0000 </r>
       <r>   14.1555    0.0000 </r>
       <r>   14.1555    0.0000 </r>
       <r>   17.0363    0.0000 </r>
       <r>   17.0365    0.0000 </r>
       <r>   19.3474    0.0000 </r>
      </set>
      <set comment="kpoint 48">
       <r>   -3.2390    1.0000 </r>
       <r>   -3.2390    1.0000 </r>
       <r>    1.4870    1.0000 </r>
       <r>    1.4870    1.0000 </r>
       <r>    8.3109    0.0000 </r>
       <r>    8.3109    0.0000 </r>
       <r>   13.5814    0.0000 </r>
       <r>   13.5814    0.0000 </r>
       <r>   17.0364    0.0000 </r>
       <r>   17.0365    0.0000 </r>
       <r>   19.3874    0.0000 </r>
      </set>
      <set comment="kpoint 49">
       <r>   -3.2173    1.0000 </r>
       <r>   -3.2173    1.0000 </r>
       <r>    1.3751    1.0000 </r>
       <r>    1.3751    1.0000 </r>
       <r>    8.7362    0.0000 </r>
       <r>    8.7362    0.0000 </r>
       <r>   13.0125    0.0000 </r>
       <r>   13.0125    0.0000 </r>
       <r>   17.0386    0.0000 </r>
       <r>   17.0388    0.0000 </r>
       <r>   19.4261    0.0000 </r>
      </set>
      <set comment="kpoint 50">
       <r>   -3.1982    1.0000 </r>
       <r>   -3.1982    1.0000 </r>
       <r>    1.2824    1.0000 </r>
       <r>    1.2824    1.0000 </r>
       <r>    9.1831    0.0000 </r>
       <r>    9.1831    0.0000 </r>
       <r>   12.4551    0.0000 </r>
       <r>   12.4551    0.0000 </r>
       <r>   17.0414    0.0000 </r>
       <r>   17.0415    0.0000 </r>
       <r>   19.4608    0.0000 </r>
      </set>
      <set comment="kpoint 51">
       <r>   -3.1833    1.0000 </r>
       <r>   -3.1833    1.0000 </r>
       <r>    1.2132    1.0000 </r>
       <r>    1.2132    1.0000 </r>
       <r>    9.6404    0.0000 </r>
       <r>    9.6404    0.0000 </r>
       <r>   11.9195    0.0000 </r>
       <r>   11.9195    0.0000 </r>
       <r>   17.0440    0.0000 </r>
       <r>   17.0443    0.0000 </r>
       <r>   19.4885    0.0000 </r>
      </set>
      <set comment="kpoint 52">
       <r>   -3.1738    1.0000 </r>
       <r>   -3.1738    1.0000 </r>
       <r>    1.1704    1.0000 </r>
       <r>    1.1704    1.0000 </r>
       <r>   10.0768    0.0000 </r>
       <r>   10.0768    0.0000 </r>
       <r>   11.4365    0.0000 </r>
       <r>   11.4365    0.0000 </r>
       <r>   17.0458    0.0000 </r>
       <r>   17.0458    0.0000 </r>
       <r>   19.5064    0.0000 </r>
      </set>
      <set comment="kpoint 53">
       <r>   -3.1706    1.0000 </r>
       <r>   -3.1706    1.0000 </r>
       <r>    1.1560    1.0000 </r>
       <r>    1.1560    1.0000 </r>
       <r>   10.3223    0.0000 </r>
       <r>   10.3223    0.0000 </r>
       <r>   11.1754    0.0000 </r>
       <r>   11.1754    0.0000 </r>
       <r>   17.0465    0.0000 </r>
       <r>   17.0465    0.0000 </r>
       <r>   19.5126    0.0000 </r>
      </set>
      <set comment="kpoint 54">
       <r>   -3.1706    1.0000 </r>
       <r>   -3.1706    1.0000 </r>
       <r>    1.1560    1.0000 </r>
       <r>    1.1560    1.0000 </r>
       <r>   10.3223    0.0000 </r>
       <r>   10.3223    0.0000 </r>
       <r>   11.1754    0.0000 </r>
       <r>   11.1754    0.0000 </r>
       <r>   17.0465    0.0000 </r>
       <r>   17.0466    0.0000 </r>
       <r>   19.5126    0.0000 </r>
      </set>
      <set comment="kpoint 55">
       <r>   -3.3042    1.0000 </r>
       <r>   -3.0418    1.0000 </r>
       <r>    1.0564    1.0000 </r>
       <r>    1.2811    1.0000 </r>
       <r>   10.0024    0.0000 </r>
       <r>   10.3815    0.0000 </r>
       <r>   11.2963    0.0000 </r>
       <r>   11.3440    0.0000 </r>
       <r>   16.7839    0.0000 </r>
       <r>   17.2471    0.0000 </r>
       <r>   19.3753    0.0000 </r>
      </set>
      <set comment="kpoint 56">
       <r>   -3.4223    1.0000 </r>
       <r>   -2.9378    1.0000 </r>
       <r>    0.9669    1.0000 </r>
       <r>    1.4446    1.0000 </r>
       <r>    9.5065    0.0000 </r>
       <r>   10.3789    0.0000 </r>
       <r>   11.5964    0.0000 </r>
       <r>   11.6304    0.0000 </r>
       <r>   16.4942    0.0000 </r>
       <r>   17.3079    0.0000 </r>
       <r>   19.1945    0.0000 </r>
      </set>
      <set comment="kpoint 57">
       <r>   -3.5248    1.0000 </r>
       <r>   -2.8570    1.0000 </r>
       <r>    0.8883    1.0000 </r>
       <r>    1.6401    1.0000 </r>
       <r>    8.9975    0.0000 </r>
       <r>   10.3488    0.0000 </r>
       <r>   11.8967    0.0000 </r>
       <r>   12.0197    0.0000 </r>
       <r>   16.1843    0.0000 </r>
       <r>   17.1776    0.0000 </r>
       <r>   19.2731    0.0000 </r>
      </set>
      <set comment="kpoint 58">
       <r>   -3.6117    1.0000 </r>
       <r>   -2.7966    1.0000 </r>
       <r>    0.8209    1.0000 </r>
       <r>    1.8574    1.0000 </r>
       <r>    8.5128    0.0000 </r>
       <r>   10.3110    0.0000 </r>
       <r>   12.2240    0.0000 </r>
       <r>   12.4337    0.0000 </r>
       <r>   15.8587    0.0000 </r>
       <r>   16.8890    0.0000 </r>
       <r>   19.4951    0.0000 </r>
      </set>
      <set comment="kpoint 59">
       <r>   -3.6828    1.0000 </r>
       <r>   -2.7531    1.0000 </r>
       <r>    0.7652    1.0000 </r>
       <r>    2.0828    1.0000 </r>
       <r>    8.0708    0.0000 </r>
       <r>   10.2743    0.0000 </r>
       <r>   12.5673    0.0000 </r>
       <r>   12.8637    0.0000 </r>
       <r>   15.5209    0.0000 </r>
       <r>   16.5087    0.0000 </r>
       <r>   19.8124    0.0000 </r>
      </set>
      <set comment="kpoint 60">
       <r>   -3.7382    1.0000 </r>
       <r>   -2.7231    1.0000 </r>
       <r>    0.7216    1.0000 </r>
       <r>    2.2980    1.0000 </r>
       <r>    7.6893    0.0000 </r>
       <r>   10.2433    0.0000 </r>
       <r>   12.9194    0.0000 </r>
       <r>   13.3055    0.0000 </r>
       <r>   15.1746    0.0000 </r>
       <r>   16.0816    0.0000 </r>
       <r>   20.1757    0.0000 </r>
      </set>
      <set comment="kpoint 61">
       <r>   -3.7778    1.0000 </r>
       <r>   -2.7039    1.0000 </r>
       <r>    0.6903    1.0000 </r>
       <r>    2.4806    1.0000 </r>
       <r>    7.3895    0.0000 </r>
       <r>   10.2200    0.0000 </r>
       <r>   13.2730    0.0000 </r>
       <r>   13.7556    0.0000 </r>
       <r>   14.8259    0.0000 </r>
       <r>   15.6321    0.0000 </r>
       <r>   20.5594    0.0000 </r>
      </set>
      <set comment="kpoint 62">
       <r>   -3.8015    1.0000 </r>
       <r>   -2.6933    1.0000 </r>
       <r>    0.6714    1.0000 </r>
       <r>    2.6051    1.0000 </r>
       <r>    7.1954    0.0000 </r>
       <r>   10.2056    0.0000 </r>
       <r>   13.6103    0.0000 </r>
       <r>   14.2071    0.0000 </r>
       <r>   14.4916    0.0000 </r>
       <r>   15.1777    0.0000 </r>
       <r>   20.9418    0.0000 </r>
      </set>
      <set comment="kpoint 63">
       <r>   -3.8095    1.0000 </r>
       <r>   -2.6899    1.0000 </r>
       <r>    0.6651    1.0000 </r>
       <r>    2.6496    1.0000 </r>
       <r>    7.1277    0.0000 </r>
       <r>   10.2008    0.0000 </r>
       <r>   13.8135    0.0000 </r>
       <r>   14.2895    0.0000 </r>
       <r>   14.5574    0.0000 </r>
       <r>   14.8260    0.0000 </r>
       <r>   21.1855    0.0000 </r>
      </set>
      <set comment="kpoint 64">
       <r>   -3.8095    1.0000 </r>
       <r>   -2.6899    1.0000 </r>
       <r>    0.6651    1.0000 </r>
       <r>    2.6496    1.0000 </r>
       <r>    7.1277    0.0000 </r>
       <r>   10.2008    0.0000 </r>
       <r>   13.8135    0.0000 </r>
       <r>   14.2895    0.0000 </r>
       <r>   14.5574    0.0000 </r>
       <r>   14.8260    0.0000 </r>
       <r>   21.2120    0.0000 </r>
      </set>
      <set comment="kpoint 65">
       <r>   -3.9713    1.0000 </r>
       <r>   -2.5238    1.0000 </r>
       <r>    0.5765    1.0000 </r>
       <r>    2.7638    1.0000 </r>
       <r>    7.2557    0.0000 </r>
       <r>   10.8437    0.0000 </r>
       <r>   13.4287    0.0000 </r>
       <r>   13.9017    0.0000 </r>
       <r>   14.2436    0.0000 </r>
       <r>   14.4918    0.0000 </r>
       <r>   21.1903    0.0000 </r>
      </set>
      <set comment="kpoint 66">
       <r>   -4.1593    1.0000 </r>
       <r>   -2.3391    1.0000 </r>
       <r>    0.5386    1.0000 </r>
       <r>    2.8884    1.0000 </r>
       <r>    7.3955    0.0000 </r>
       <r>   11.4829    0.0000 </r>
       <r>   13.0544    0.0000 </r>
       <r>   13.5492    0.0000 </r>
       <r>   13.9371    0.0000 </r>
       <r>   14.1735    0.0000 </r>
       <r>   20.9648    0.0000 </r>
      </set>
      <set comment="kpoint 67">
       <r>   -4.3696    1.0000 </r>
       <r>   -2.1361    1.0000 </r>
       <r>    0.5499    1.0000 </r>
       <r>    3.0225    1.0000 </r>
       <r>    7.5460    0.0000 </r>
       <r>   12.0587    0.0000 </r>
       <r>   12.6917    0.0000 </r>
       <r>   13.2881    0.0000 </r>
       <r>   13.6405    0.0000 </r>
       <r>   13.8732    0.0000 </r>
       <r>   20.6233    0.0000 </r>
      </set>
      <set comment="kpoint 68">
       <r>   -4.5969    1.0000 </r>
       <r>   -1.9147    1.0000 </r>
       <r>    0.6064    1.0000 </r>
       <r>    3.1648    1.0000 </r>
       <r>    7.7058    0.0000 </r>
       <r>   12.3243    0.0000 </r>
       <r>   12.3415    0.0000 </r>
       <r>   13.3565    0.0000 </r>
       <r>   13.3614    0.0000 </r>
       <r>   13.5927    0.0000 </r>
       <r>   20.2869    0.0000 </r>
      </set>
      <set comment="kpoint 69">
       <r>   -4.8359    1.0000 </r>
       <r>   -1.6752    1.0000 </r>
       <r>    0.7036    1.0000 </r>
       <r>    3.3140    1.0000 </r>
       <r>    7.8728    0.0000 </r>
       <r>   12.0048    0.0000 </r>
       <r>   12.1681    0.0000 </r>
       <r>   13.0875    0.0000 </r>
       <r>   13.3340    0.0000 </r>
       <r>   13.8755    0.0000 </r>
       <r>   19.9658    0.0000 </r>
      </set>
      <set comment="kpoint 70">
       <r>   -5.0813    1.0000 </r>
       <r>   -1.4176    1.0000 </r>
       <r>    0.8370    1.0000 </r>
       <r>    3.4687    1.0000 </r>
       <r>    8.0449    0.0000 </r>
       <r>   11.6819    0.0000 </r>
       <r>   11.8908    0.0000 </r>
       <r>   12.8360    0.0000 </r>
       <r>   13.0990    0.0000 </r>
       <r>   14.5219    0.0000 </r>
       <r>   19.6345    0.0000 </r>
      </set>
      <set comment="kpoint 71">
       <r>   -5.3287    1.0000 </r>
       <r>   -1.1422    1.0000 </r>
       <r>    1.0023    1.0000 </r>
       <r>    3.6273    1.0000 </r>
       <r>    8.2189    0.0000 </r>
       <r>   11.3734    0.0000 </r>
       <r>   11.5951    0.0000 </r>
       <r>   12.6050    0.0000 </r>
       <r>   12.8895    0.0000 </r>
       <r>   15.1848    0.0000 </r>
       <r>   19.3298    0.0000 </r>
      </set>
      <set comment="kpoint 72">
       <r>   -5.5741    1.0000 </r>
       <r>   -0.8492    1.0000 </r>
       <r>    1.1954    1.0000 </r>
       <r>    3.7877    1.0000 </r>
       <r>    8.3910    0.0000 </r>
       <r>   11.0798    0.0000 </r>
       <r>   11.3029    0.0000 </r>
       <r>   12.3976    0.0000 </r>
       <r>   12.7078    0.0000 </r>
       <r>   15.8189    0.0000 </r>
       <r>   19.0750    0.0000 </r>
      </set>
      <set comment="kpoint 73">
       <r>   -5.8146    1.0000 </r>
       <r>   -0.5389    1.0000 </r>
       <r>    1.4130    1.0000 </r>
       <r>    3.9479    1.0000 </r>
       <r>    8.5564    0.0000 </r>
       <r>   10.8013    0.0000 </r>
       <r>   11.0207    0.0000 </r>
       <r>   12.2174    0.0000 </r>
       <r>   12.5557    0.0000 </r>
       <r>   16.3749    0.0000 </r>
       <r>   18.8676    0.0000 </r>
      </set>
      <set comment="kpoint 74">
       <r>   -6.0476    1.0000 </r>
       <r>   -0.2114    1.0000 </r>
       <r>    1.6519    1.0000 </r>
       <r>    4.1058    1.0000 </r>
       <r>    8.7094    0.0000 </r>
       <r>   10.5383    0.0000 </r>
       <r>   10.7513    0.0000 </r>
       <r>   12.0682    0.0000 </r>
       <r>   12.4354    0.0000 </r>
       <r>   16.7845    0.0000 </r>
       <r>   18.3215    0.0000 </r>
      </set>
      <set comment="kpoint 75">
       <r>   -6.2710    1.0000 </r>
       <r>    0.1326    1.0000 </r>
       <r>    1.9093    1.0000 </r>
       <r>    4.2591    1.0000 </r>
       <r>    8.8435    0.0000 </r>
       <r>   10.2911    0.0000 </r>
       <r>   10.4957    0.0000 </r>
       <r>   11.9535    0.0000 </r>
       <r>   12.3490    0.0000 </r>
       <r>   16.9899    0.0000 </r>
       <r>   17.6511    0.0000 </r>
      </set>
      <set comment="kpoint 76">
       <r>   -6.4834    1.0000 </r>
       <r>    0.4929    1.0000 </r>
       <r>    2.1824    1.0000 </r>
       <r>    4.4055    1.0000 </r>
       <r>    8.9526    0.0000 </r>
       <r>   10.0599    0.0000 </r>
       <r>   10.2549    0.0000 </r>
       <r>   11.8749    0.0000 </r>
       <r>   12.2982    0.0000 </r>
       <r>   16.9688    0.0000 </r>
       <r>   17.0014    0.0000 </r>
      </set>
      <set comment="kpoint 77">
       <r>   -6.6833    1.0000 </r>
       <r>    0.8687    1.0000 </r>
       <r>    2.4685    1.0000 </r>
       <r>    4.5429    1.0000 </r>
       <r>    9.0319    0.0000 </r>
       <r>    9.8449    0.0000 </r>
       <r>   10.0291    0.0000 </r>
       <r>   11.8299    0.0000 </r>
       <r>   12.2846    0.0000 </r>
       <r>   16.3034    0.0000 </r>
       <r>   16.8789    0.0000 </r>
      </set>
      <set comment="kpoint 78">
       <r>   -6.8699    1.0000 </r>
       <r>    1.2592    1.0000 </r>
       <r>    2.7646    1.0000 </r>
       <r>    4.6696    1.0000 </r>
       <r>    9.0799    0.0000 </r>
       <r>    9.6463    0.0000 </r>
       <r>    9.8186    0.0000 </r>
       <r>   11.8090    0.0000 </r>
       <r>   12.3092    0.0000 </r>
       <r>   15.6713    0.0000 </r>
       <r>   16.6725    0.0000 </r>
      </set>
      <set comment="kpoint 79">
       <r>   -7.0422    1.0000 </r>
       <r>    1.6635    1.0000 </r>
       <r>    3.0675    1.0000 </r>
       <r>    4.7839    1.0000 </r>
       <r>    9.0983    0.0000 </r>
       <r>    9.4644    0.0000 </r>
       <r>    9.6236    0.0000 </r>
       <r>   11.7919    0.0000 </r>
       <r>   12.3723    0.0000 </r>
       <r>   15.0921    0.0000 </r>
       <r>   16.4124    0.0000 </r>
      </set>
      <set comment="kpoint 80">
       <r>   -7.1996    1.0000 </r>
       <r>    2.0799    1.0000 </r>
       <r>    3.3736    1.0000 </r>
       <r>    4.8851    1.0000 </r>
       <r>    9.0920    0.0000 </r>
       <r>    9.2992    0.0000 </r>
       <r>    9.4440    0.0000 </r>
       <r>   11.7450    0.0000 </r>
       <r>   12.4734    0.0000 </r>
       <r>   14.5939    0.0000 </r>
       <r>   16.1156    0.0000 </r>
      </set>
      <set comment="kpoint 81">
       <r>   -7.3416    1.0000 </r>
       <r>    2.5065    1.0000 </r>
       <r>    3.6787    1.0000 </r>
       <r>    4.9727    1.0000 </r>
       <r>    9.0670    0.0000 </r>
       <r>    9.1511    0.0000 </r>
       <r>    9.2799    0.0000 </r>
       <r>   11.6238    0.0000 </r>
       <r>   12.6108    0.0000 </r>
       <r>   14.2131    0.0000 </r>
       <r>   15.7950    0.0000 </r>
      </set>
      <set comment="kpoint 82">
       <r>   -7.4678    1.0000 </r>
       <r>    2.9403    1.0000 </r>
       <r>    3.9777    1.0000 </r>
       <r>    5.0467    1.0000 </r>
       <r>    9.0200    0.0000 </r>
       <r>    9.0293    0.0000 </r>
       <r>    9.1314    0.0000 </r>
       <r>   11.3934    0.0000 </r>
       <r>   12.7814    0.0000 </r>
       <r>   13.9769    0.0000 </r>
       <r>   15.4631    0.0000 </r>
      </set>
      <set comment="kpoint 83">
       <r>   -7.5777    1.0000 </r>
       <r>    3.3770    1.0000 </r>
       <r>    4.2644    1.0000 </r>
       <r>    5.1079    1.0000 </r>
       <r>    8.9061    0.0000 </r>
       <r>    8.9832    0.0000 </r>
       <r>    8.9986    0.0000 </r>
       <r>   11.0579    0.0000 </r>
       <r>   12.9804    0.0000 </r>
       <r>   13.8753    0.0000 </r>
       <r>   15.1341    0.0000 </r>
      </set>
      <set comment="kpoint 84">
       <r>   -7.6711    1.0000 </r>
       <r>    3.8100    1.0000 </r>
       <r>    4.5318    1.0000 </r>
       <r>    5.1570    1.0000 </r>
       <r>    8.8096    0.0000 </r>
       <r>    8.8820    0.0000 </r>
       <r>    8.9313    0.0000 </r>
       <r>   10.6582    0.0000 </r>
       <r>   13.2007    0.0000 </r>
       <r>   13.8657    0.0000 </r>
       <r>   14.8227    0.0000 </r>
      </set>
      <set comment="kpoint 85">
       <r>   -7.7479    1.0000 </r>
       <r>    4.2288    1.0000 </r>
       <r>    4.7713    1.0000 </r>
       <r>    5.1951    1.0000 </r>
       <r>    8.7305    0.0000 </r>
       <r>    8.7823    0.0000 </r>
       <r>    8.8729    0.0000 </r>
       <r>   10.2446    0.0000 </r>
       <r>   13.4317    0.0000 </r>
       <r>   13.9031    0.0000 </r>
       <r>   14.5431    0.0000 </r>
      </set>
      <set comment="kpoint 86">
       <r>   -7.8077    1.0000 </r>
       <r>    4.6164    1.0000 </r>
       <r>    4.9732    1.0000 </r>
       <r>    5.2234    1.0000 </r>
       <r>    8.6689    0.0000 </r>
       <r>    8.7011    0.0000 </r>
       <r>    8.8034    0.0000 </r>
       <r>    9.8659    0.0000 </r>
       <r>   13.6576    0.0000 </r>
       <r>   13.9553    0.0000 </r>
       <r>   14.3087    0.0000 </r>
      </set>
      <set comment="kpoint 87">
       <r>   -7.8505    1.0000 </r>
       <r>    4.9451    1.0000 </r>
       <r>    5.1274    1.0000 </r>
       <r>    5.2428    1.0000 </r>
       <r>    8.6248    0.0000 </r>
       <r>    8.6403    0.0000 </r>
       <r>    8.7176    0.0000 </r>
       <r>    9.5712    0.0000 </r>
       <r>   13.8555    0.0000 </r>
       <r>   14.0030    0.0000 </r>
       <r>   14.1315    0.0000 </r>
      </set>
      <set comment="kpoint 88">
       <r>   -7.8763    1.0000 </r>
       <r>    5.1734    1.0000 </r>
       <r>    5.2242    1.0000 </r>
       <r>    5.2540    1.0000 </r>
       <r>    8.5984    0.0000 </r>
       <r>    8.6029    0.0000 </r>
       <r>    8.6301    0.0000 </r>
       <r>    9.3964    0.0000 </r>
       <r>   13.9953    0.0000 </r>
       <r>   14.0210    0.0000 </r>
       <r>   14.0351    0.0000 </r>
      </set>
      <set comment="kpoint 89">
       <r>   -7.8848    1.0000 </r>
       <r>    5.2578    1.0000 </r>
       <r>    5.2578    1.0000 </r>
       <r>    5.2578    1.0000 </r>
       <r>    8.5896    0.0000 </r>
       <r>    8.5896    0.0000 </r>
       <r>    8.5896    0.0000 </r>
       <r>    9.3407    0.0000 </r>
       <r>   13.9834    0.0000 </r>
       <r>   14.0463    0.0000 </r>
       <r>   14.0463    0.0000 </r>
      </set>
      <set comment="kpoint 90">
       <r>   -7.8848    1.0000 </r>
       <r>    5.2578    1.0000 </r>
       <r>    5.2578    1.0000 </r>
       <r>    5.2578    1.0000 </r>
       <r>    8.5896    0.0000 </r>
       <r>    8.5896    0.0000 </r>
       <r>    8.5896    0.0000 </r>
       <r>    9.3407    0.0000 </r>
       <r>   13.9834    0.0000 </r>
       <r>   14.0463    0.0000 </r>
       <r>   14.0463    0.0000 </r>
      </set>
      <set comment="kpoint 91">
       <r>   -7.8759    1.0000 </r>
       <r>    5.1598    1.0000 </r>
       <r>    5.2436    1.0000 </r>
       <r>    5.2436    1.0000 </r>
       <r>    8.6108    0.0000 </r>
       <r>    8.6108    0.0000 </r>
       <r>    8.6112    0.0000 </r>
       <r>    9.3994    0.0000 </r>
       <r>   14.0139    0.0000 </r>
       <r>   14.0139    0.0000 </r>
       <r>   14.0225    0.0000 </r>
      </set>
      <set comment="kpoint 92">
       <r>   -7.8491    1.0000 </r>
       <r>    4.8950    1.0000 </r>
       <r>    5.2030    1.0000 </r>
       <r>    5.2030    1.0000 </r>
       <r>    8.6362    0.0000 </r>
       <r>    8.6720    0.0000 </r>
       <r>    8.6720    0.0000 </r>
       <r>    9.5875    0.0000 </r>
       <r>   13.9244    0.0000 </r>
       <r>   13.9244    0.0000 </r>
       <r>   14.1374    0.0000 </r>
      </set>
      <set comment="kpoint 93">
       <r>   -7.8045    1.0000 </r>
       <r>    4.5135    1.0000 </r>
       <r>    5.1393    1.0000 </r>
       <r>    5.1393    1.0000 </r>
       <r>    8.6211    0.0000 </r>
[...]
        <r>  0.0000  0.0000  0.0496  0.1488  0.0000  0.0000  0.0000  0.0000  0.0000 </r>
       </set>
       <set comment="band 5">
        <r>  0.0524  0.0129  0.0185  0.0062  0.0000  0.0000  0.0000  0.0000  0.0000 </r>
        <r>  0.0524  0.0129  0.0185  0.0062  0.0000  0.0000  0.0000  0.0000  0.0000 </r>
       </set>
       <set comment="band 6">
        <r>  0.0318  0.0441  0.0232  0.0077  0.0000  0.0000  0.0000  0.0000  0.0000 </r>
        <r>  0.0318  0.0441  0.0232  0.0077  0.0000  0.0000  0.0000  0.0000  0.0000 </r>
       </set>
       <set comment="band 7">
        <r>  0.0000  0.0000  0.0410  0.1230  0.0000  0.0000  0.0000  0.0000  0.0000 </r>
        <r>  0.0000  0.0000  0.0410  0.1230  0.0000  0.0000  0.0000  0.0000  0.0000 </r>
       </set>
       <set comment="band 8">
        <r>  0.0298  0.0312  0.0460  0.0153  0.0000  0.0000  0.0000  0.0000  0.0000 </r>
        <r>  0.0298  0.0312  0.0460  0.0153  0.0000  0.0000  0.0000  0.0000  0.0000 </r>
       </set>
       <set comment="band 9">
        <r>  0.0421  0.1171  0.0565  0.0188  0.0000  0.0000  0.0000  0.0000  0.0000 </r>
        <r>  0.0421  0.1170  0.0565  0.0188  0.0000  0.0000  0.0000  0.0000  0.0000 </r>
       </set>
       <set comment="band 10">
        <r>  0.0000  0.0000  0.0033  0.0097  0.0000  0.0000  0.0000  0.0000  0.0000 </r>
        <r>  0.0000  0.0000  0.0032  0.0097  0.0000  0.0000  0.0000  0.0000  0.0000 </r>
       </set>
       <set comment="band 11">
        <r>  0.0169  0.0978  0.0892  0.0390  0.0000  0.0000  0.0000  0.0000  0.0000 </r>
        <r>  0.0146  0.1002  0.0902  0.0456  0.0000  0.0000  0.0000  0.0000  0.0000 </r>
       </set>
      </set>
      <set comment="kpoint 174">
       <set comment="band 1">
        <r>  0.2085  0.0143  0.0185  0.0062  0.0000  0.0000  0.0000  0.0000  0.0000 </r>
        <r>  0.2085  0.0143  0.0185  0.0062  0.0000  0.0000  0.0000  0.0000  0.0000 </r>
       </set>
       <set comment="band 2">
        <r>  0.1920  0.0184  0.0236  0.0079  0.0000  0.0000  0.0000  0.0000  0.0000 </r>
        <r>  0.1920  0.0184  0.0236  0.0079  0.0000  0.0000  0.0000  0.0000  0.0000 </r>
       </set>
       <set comment="band 3">
        <r>  0.0013  0.1025  0.0476  0.0159  0.0000  0.0000  0.0000  0.0000  0.0000 </r>
        <r>  0.0013  0.1025  0.0476  0.0159  0.0000  0.0000  0.0000  0.0000  0.0000 </r>
       </set>
       <set comment="band 4">
        <r>  0.0000  0.0000  0.0495  0.1484  0.0000  0.0000  0.0000  0.0000  0.0000 </r>
        <r>  0.0000  0.0000  0.0495  0.1484  0.0000  0.0000  0.0000  0.0000  0.0000 </r>
       </set>
       <set comment="band 5">
        <r>  0.0523  0.0125  0.0181  0.0060  0.0000  0.0000  0.0000  0.0000  0.0000 </r>
        <r>  0.0523  0.0125  0.0181  0.0060  0.0000  0.0000  0.0000  0.0000  0.0000 </r>
       </set>
       <set comment="band 6">
        <r>  0.0355  0.0399  0.0226  0.0075  0.0000  0.0000  0.0000  0.0000  0.0000 </r>
        <r>  0.0355  0.0399  0.0226  0.0075  0.0000  0.0000  0.0000  0.0000  0.0000 </r>
       </set>
       <set comment="band 7">
        <r>  0.0000  0.0000  0.0424  0.1272  0.0000  0.0000  0.0000  0.0000  0.0000 </r>
        <r>  0.0000  0.0000  0.0424  0.1272  0.0000  0.0000  0.0000  0.0000  0.0000 </r>
       </set>
       <set comment="band 8">
        <r>  0.0359  0.1233  0.0578  0.0193  0.0000  0.0000  0.0000  0.0000  0.0000 </r>
        <r>  0.0359  0.1233  0.0578  0.0193  0.0000  0.0000  0.0000  0.0000  0.0000 </r>
       </set>
       <set comment="band 9">
        <r>  0.0271  0.0296  0.0429  0.0143  0.0000  0.0000  0.0000  0.0000  0.0000 </r>
        <r>  0.0271  0.0295  0.0429  0.0143  0.0000  0.0000  0.0000  0.0000  0.0000 </r>
       </set>
       <set comment="band 10">
        <r>  0.0000  0.0000  0.0032  0.0095  0.0000  0.0000  0.0000  0.0000  0.0000 </r>
        <r>  0.0000  0.0000  0.0032  0.0095  0.0000  0.0000  0.0000  0.0000  0.0000 </r>
       </set>
       <set comment="band 11">
        <r>  0.0234  0.0977  0.1057  0.0282  0.0000  0.0000  0.0000  0.0000  0.0000 </r>
        <r>  0.0223  0.0989  0.1022  0.0354  0.0000  0.0000  0.0000  0.0000  0.0000 </r>
       </set>
      </set>
      <set comment="kpoint 175">
       <set comment="band 1">
        <r>  0.2053  0.0144  0.0198  0.0066  0.0000  0.0000  0.0000  0.0000  0.0000 </r>
        <r>  0.2053  0.0144  0.0198  0.0066  0.0000  0.0000  0.0000  0.0000  0.0000 </r>
       </set>
       <set comment="band 2">
        <r>  0.1933  0.0174  0.0234  0.0078  0.0000  0.0000  0.0000  0.0000  0.0000 </r>
        <r>  0.1933  0.0174  0.0234  0.0078  0.0000  0.0000  0.0000  0.0000  0.0000 </r>
       </set>
       <set comment="band 3">
        <r>  0.0020  0.1075  0.0472  0.0157  0.0000  0.0000  0.0000  0.0000  0.0000 </r>
        <r>  0.0020  0.1075  0.0472  0.0157  0.0000  0.0000  0.0000  0.0000  0.0000 </r>
       </set>
       <set comment="band 4">
        <r>  0.0000  0.0000  0.0494  0.1481  0.0000  0.0000  0.0000  0.0000  0.0000 </r>
        <r>  0.0000  0.0000  0.0494  0.1481  0.0000  0.0000  0.0000  0.0000  0.0000 </r>
       </set>
       <set comment="band 5">
        <r>  0.0522  0.0121  0.0178  0.0059  0.0000  0.0000  0.0000  0.0000  0.0000 </r>
        <r>  0.0522  0.0121  0.0178  0.0059  0.0000  0.0000  0.0000  0.0000  0.0000 </r>
       </set>
       <set comment="band 6">
        <r>  0.0391  0.0351  0.0218  0.0073  0.0000  0.0000  0.0000  0.0000  0.0000 </r>
        <r>  0.0391  0.0351  0.0218  0.0073  0.0000  0.0000  0.0000  0.0000  0.0000 </r>
       </set>
       <set comment="band 7">
        <r>  0.0000  0.0000  0.0443  0.1328  0.0000  0.0000  0.0000  0.0000  0.0000 </r>
        <r>  0.0000  0.0000  0.0442  0.1328  0.0000  0.0000  0.0000  0.0000  0.0000 </r>
       </set>
       <set comment="band 8">
        <r>  0.0291  0.1301  0.0588  0.0196  0.0000  0.0000  0.0000  0.0000  0.0000 </r>
        <r>  0.0291  0.1301  0.0588  0.0196  0.0000  0.0000  0.0000  0.0000  0.0000 </r>
       </set>
       <set comment="band 9">
        <r>  0.0241  0.0277  0.0391  0.0130  0.0000  0.0000  0.0000  0.0000  0.0000 </r>
        <r>  0.0242  0.0277  0.0391  0.0130  0.0000  0.0000  0.0000  0.0000  0.0000 </r>
       </set>
       <set comment="band 10">
        <r>  0.0000  0.0000  0.0031  0.0093  0.0000  0.0000  0.0000  0.0000  0.0000 </r>
        <r>  0.0000  0.0000  0.0031  0.0093  0.0000  0.0000  0.0000  0.0000  0.0000 </r>
       </set>
       <set comment="band 11">
        <r>  0.0282  0.0819  0.0820  0.0363  0.0000  0.0000  0.0000  0.0000  0.0000 </r>
        <r>  0.0248  0.0855  0.1002  0.0287  0.0000  0.0000  0.0000  0.0000  0.0000 </r>
       </set>
      </set>
      <set comment="kpoint 176">
       <set comment="band 1">
        <r>  0.2024  0.0146  0.0208  0.0069  0.0000  0.0000  0.0000  0.0000  0.0000 </r>
        <r>  0.2024  0.0146  0.0208  0.0069  0.0000  0.0000  0.0000  0.0000  0.0000 </r>
       </set>
       <set comment="band 2">
        <r>  0.1945  0.0166  0.0231  0.0077  0.0000  0.0000  0.0000  0.0000  0.0000 </r>
        <r>  0.1945  0.0166  0.0231  0.0077  0.0000  0.0000  0.0000  0.0000  0.0000 </r>
       </set>
       <set comment="band 3">
        <r>  0.0022  0.1130  0.0473  0.0158  0.0000  0.0000  0.0000  0.0000  0.0000 </r>
        <r>  0.0022  0.1130  0.0473  0.0158  0.0000  0.0000  0.0000  0.0000  0.0000 </r>
       </set>
       <set comment="band 4">
        <r>  0.0000  0.0000  0.0493  0.1478  0.0000  0.0000  0.0000  0.0000  0.0000 </r>
        <r>  0.0000  0.0000  0.0493  0.1478  0.0000  0.0000  0.0000  0.0000  0.0000 </r>
       </set>
       <set comment="band 5">
        <r>  0.0521  0.0119  0.0175  0.0058  0.0000  0.0000  0.0000  0.0000  0.0000 </r>
        <r>  0.0521  0.0119  0.0175  0.0058  0.0000  0.0000  0.0000  0.0000  0.0000 </r>
       </set>
       <set comment="band 6">
        <r>  0.0426  0.0295  0.0207  0.0069  0.0000  0.0000  0.0000  0.0000  0.0000 </r>
        <r>  0.0426  0.0295  0.0207  0.0069  0.0000  0.0000  0.0000  0.0000  0.0000 </r>
       </set>
       <set comment="band 7">
        <r>  0.0000  0.0000  0.0467  0.1402  0.0000  0.0000  0.0000  0.0000  0.0000 </r>
        <r>  0.0000  0.0000  0.0467  0.1402  0.0000  0.0000  0.0000  0.0000  0.0000 </r>
       </set>
       <set comment="band 8">
        <r>  0.0218  0.1373  0.0596  0.0199  0.0000  0.0000  0.0000  0.0000  0.0000 </r>
        <r>  0.0218  0.1373  0.0596  0.0199  0.0000  0.0000  0.0000  0.0000  0.0000 </r>
       </set>
       <set comment="band 9">
        <r>  0.0207  0.0253  0.0344  0.0115  0.0000  0.0000  0.0000  0.0000  0.0000 </r>
        <r>  0.0207  0.0253  0.0345  0.0115  0.0000  0.0000  0.0000  0.0000  0.0000 </r>
       </set>
       <set comment="band 10">
        <r>  0.0000  0.0000  0.0030  0.0090  0.0000  0.0000  0.0000  0.0000  0.0000 </r>
        <r>  0.0000  0.0000  0.0030  0.0090  0.0000  0.0000  0.0000  0.0000  0.0000 </r>
       </set>
       <set comment="band 11">
        <r>  0.0351  0.0885  0.1105  0.0313  0.0000  0.0000  0.0000  0.0000  0.0000 </r>
        <r>  0.0384  0.0849  0.1020  0.0312  0.0000  0.0000  0.0000  0.0000  0.0000 </r>
       </set>
      </set>
      <set comment="kpoint 177">
       <set comment="band 1">
        <r>  0.1999  0.0148  0.0216  0.0072  0.0000  0.0000  0.0000  0.0000  0.0000 </r>
        <r>  0.1999  0.0148  0.0216  0.0072  0.0000  0.0000  0.0000  0.0000  0.0000 </r>
       </set>
       <set comment="band 2">
        <r>  0.1954  0.0159  0.0229  0.0076  0.0000  0.0000  0.0000  0.0000  0.0000 </r>
        <r>  0.1954  0.0159  0.0229  0.0076  0.0000  0.0000  0.0000  0.0000  0.0000 </r>
       </set>
       <set comment="band 3">
        <r>  0.0019  0.1190  0.0477  0.0159  0.0000  0.0000  0.0000  0.0000  0.0000 </r>
        <r>  0.0019  0.1190  0.0477  0.0159  0.0000  0.0000  0.0000  0.0000  0.0000 </r>
       </set>
       <set comment="band 4">
        <r>  0.0000  0.0000  0.0492  0.1476  0.0000  0.0000  0.0000  0.0000  0.0000 </r>
        <r>  0.0000  0.0000  0.0492  0.1476  0.0000  0.0000  0.0000  0.0000  0.0000 </r>
       </set>
       <set comment="band 5">
        <r>  0.0521  0.0117  0.0173  0.0058  0.0000  0.0000  0.0000  0.0000  0.0000 </r>
        <r>  0.0521  0.0117  0.0173  0.0058  0.0000  0.0000  0.0000  0.0000  0.0000 </r>
       </set>
       <set comment="band 6">
        <r>  0.0460  0.0235  0.0196  0.0065  0.0000  0.0000  0.0000  0.0000  0.0000 </r>
        <r>  0.0460  0.0235  0.0196  0.0065  0.0000  0.0000  0.0000  0.0000  0.0000 </r>
       </set>
       <set comment="band 7">
        <r>  0.0000  0.0000  0.0498  0.1501  0.0000  0.0000  0.0000  0.0000  0.0000 </r>
        <r>  0.0000  0.0000  0.0499  0.1500  0.0000  0.0000  0.0000  0.0000  0.0000 </r>
       </set>
       <set comment="band 8">
        <r>  0.0144  0.1449  0.0600  0.0199  0.0000  0.0000  0.0000  0.0000  0.0000 </r>
        <r>  0.0144  0.1446  0.0600  0.0201  0.0000  0.0000  0.0000  0.0000  0.0000 </r>
       </set>
       <set comment="band 9">
        <r>  0.0163  0.0222  0.0285  0.0095  0.0000  0.0000  0.0000  0.0000  0.0000 </r>
        <r>  0.0165  0.0220  0.0282  0.0094  0.0000  0.0000  0.0000  0.0000  0.0000 </r>
       </set>
       <set comment="band 10">
        <r>  0.0000  0.0000  0.0029  0.0088  0.0000  0.0000  0.0000  0.0000  0.0000 </r>
        <r>  0.0000  0.0000  0.0029  0.0089  0.0000  0.0000  0.0000  0.0000  0.0000 </r>
       </set>
       <set comment="band 11">
        <r>  0.0354  0.0396  0.0720  0.0039  0.0000  0.0000  0.0000  0.0000  0.0000 </r>
        <r>  0.0194  0.0575  0.0985  0.0165  0.0000  0.0000  0.0000  0.0000  0.0000 </r>
       </set>
      </set>
      <set comment="kpoint 178">
       <set comment="band 1">
        <r>  0.1981  0.0150  0.0222  0.0074  0.0000  0.0000  0.0000  0.0000  0.0000 </r>
        <r>  0.1981  0.0150  0.0222  0.0074  0.0000  0.0000  0.0000  0.0000  0.0000 </r>
       </set>
       <set comment="band 2">
        <r>  0.1960  0.0155  0.0228  0.0076  0.0000  0.0000  0.0000  0.0000  0.0000 </r>
        <r>  0.1960  0.0155  0.0228  0.0076  0.0000  0.0000  0.0000  0.0000  0.0000 </r>
       </set>
       <set comment="band 3">
        <r>  0.0011  0.1248  0.0483  0.0161  0.0000  0.0000  0.0000  0.0000  0.0000 </r>
        <r>  0.0011  0.1248  0.0483  0.0161  0.0000  0.0000  0.0000  0.0000  0.0000 </r>
       </set>
       <set comment="band 4">
        <r>  0.0000  0.0000  0.0491  0.1474  0.0000  0.0000  0.0000  0.0000  0.0000 </r>
        <r>  0.0000  0.0000  0.0491  0.1474  0.0000  0.0000  0.0000  0.0000  0.0000 </r>
       </set>
       <set comment="band 5">
        <r>  0.0520  0.0115  0.0172  0.0057  0.0000  0.0000  0.0000  0.0000  0.0000 </r>
        <r>  0.0520  0.0115  0.0172  0.0057  0.0000  0.0000  0.0000  0.0000  0.0000 </r>
       </set>
       <set comment="band 6">
        <r>  0.0490  0.0176  0.0184  0.0061  0.0000  0.0000  0.0000  0.0000  0.0000 </r>
        <r>  0.0490  0.0176  0.0184  0.0061  0.0000  0.0000  0.0000  0.0000  0.0000 </r>
       </set>
       <set comment="band 7">
        <r>  0.0000  0.0000  0.0538  0.1624  0.0000  0.0000  0.0000  0.0000  0.0000 </r>
        <r>  0.0000  0.0000  0.0539  0.1623  0.0000  0.0000  0.0000  0.0000  0.0000 </r>
       </set>
       <set comment="band 8">
        <r>  0.0074  0.1520  0.0601  0.0200  0.0000  0.0000  0.0000  0.0000  0.0000 </r>
        <r>  0.0074  0.1521  0.0601  0.0200  0.0000  0.0000  0.0000  0.0000  0.0000 </r>
       </set>
       <set comment="band 9">
        <r>  0.0110  0.0169  0.0195  0.0064  0.0000  0.0000  0.0000  0.0000  0.0000 </r>
        <r>  0.0105  0.0180  0.0202  0.0068  0.0000  0.0000  0.0000  0.0000  0.0000 </r>
       </set>
       <set comment="band 10">
        <r>  0.0000  0.0000  0.0030  0.0089  0.0000  0.0000  0.0000  0.0000  0.0000 </r>
        <r>  0.0000  0.0000  0.0030  0.0085  0.0000  0.0000  0.0000  0.0000  0.0000 </r>
       </set>
       <set comment="band 11">
        <r>  0.0185  0.0824  0.1659  0.0325  0.0000  0.0000  0.0000  0.0000  0.0000 </r>
        <r>  0.0714  0.0219  0.0620  0.0081  0.0000  0.0000  0.0000  0.0000  0.0000 </r>
       </set>
      </set>
      <set comment="kpoint 179">
       <set comment="band 1">
        <r>  0.1969  0.0151  0.0226  0.0075  0.0000  0.0000  0.0000  0.0000  0.0000 </r>
        <r>  0.1969  0.0151  0.0226  0.0075  0.0000  0.0000  0.0000  0.0000  0.0000 </r>
       </set>
       <set comment="band 2">
        <r>  0.1964  0.0152  0.0227  0.0076  0.0000  0.0000  0.0000  0.0000  0.0000 </r>
        <r>  0.1964  0.0152  0.0227  0.0076  0.0000  0.0000  0.0000  0.0000  0.0000 </r>
       </set>
       <set comment="band 3">
        <r>  0.0004  0.1292  0.0489  0.0163  0.0000  0.0000  0.0000  0.0000  0.0000 </r>
        <r>  0.0004  0.1292  0.0489  0.0163  0.0000  0.0000  0.0000  0.0000  0.0000 </r>
       </set>
       <set comment="band 4">
        <r>  0.0000  0.0000  0.0491  0.1473  0.0000  0.0000  0.0000  0.0000  0.0000 </r>
        <r>  0.0000  0.0000  0.0491  0.1473  0.0000  0.0000  0.0000  0.0000  0.0000 </r>
       </set>
       <set comment="band 5">
        <r>  0.0520  0.0114  0.0171  0.0057  0.0000  0.0000  0.0000  0.0000  0.0000 </r>
        <r>  0.0520  0.0114  0.0171  0.0057  0.0000  0.0000  0.0000  0.0000  0.0000 </r>
       </set>
       <set comment="band 6">
        <r>  0.0512  0.0131  0.0174  0.0058  0.0000  0.0000  0.0000  0.0000  0.0000 </r>
        <r>  0.0512  0.0132  0.0175  0.0058  0.0000  0.0000  0.0000  0.0000  0.0000 </r>
       </set>
       <set comment="band 7">
        <r>  0.0000  0.0000  0.0583  0.1741  0.0000  0.0000  0.0000  0.0000  0.0000 </r>
        <r>  0.0000  0.0000  0.0581  0.1744  0.0000  0.0000  0.0000  0.0000  0.0000 </r>
       </set>
       <set comment="band 8">
        <r>  0.0020  0.1576  0.0598  0.0200  0.0000  0.0000  0.0000  0.0000  0.0000 </r>
        <r>  0.0021  0.1572  0.0602  0.0200  0.0000  0.0000  0.0000  0.0000  0.0000 </r>
       </set>
       <set comment="band 9">
        <r>  0.0038  0.0113  0.0091  0.0030  0.0000  0.0000  0.0000  0.0000  0.0000 </r>
        <r>  0.0038  0.0108  0.0097  0.0031  0.0000  0.0000  0.0000  0.0000  0.0000 </r>
       </set>
       <set comment="band 10">
        <r>  0.0000  0.0000  0.0029  0.0091  0.0000  0.0000  0.0000  0.0000  0.0000 </r>
        <r>  0.0000  0.0000  0.0025  0.0092  0.0000  0.0000  0.0000  0.0000  0.0000 </r>
       </set>
       <set comment="band 11">
        <r>  0.0225  0.0825  0.1472  0.0586  0.0000  0.0000  0.0000  0.0000  0.0000 </r>
        <r>  0.0804  0.0149  0.0508  0.0174  0.0000  0.0000  0.0000  0.0000  0.0000 </r>
       </set>
      </set>
      <set comment="kpoint 180">
       <set comment="band 1">
        <r>  0.0871  0.0235  0.0353  0.0118  0.0000  0.0000  0.0000  0.0000  0.0000 </r>
        <r>  0.3060  0.0067  0.0101  0.0034  0.0000  0.0000  0.0000  0.0000  0.0000 </r>
       </set>
       <set comment="band 2">
        <r>  0.3060  0.0067  0.0101  0.0034  0.0000  0.0000  0.0000  0.0000  0.0000 </r>
        <r>  0.0871  0.0235  0.0353  0.0118  0.0000  0.0000  0.0000  0.0000  0.0000 </r>
       </set>
       <set comment="band 3">
        <r>  0.0000  0.0951  0.0617  0.0396  0.0000  0.0000  0.0000  0.0000  0.0000 </r>
        <r>  0.0000  0.0951  0.0365  0.0648  0.0000  0.0000  0.0000  0.0000  0.0000 </r>
       </set>
       <set comment="band 4">
        <r>  0.0000  0.0358  0.0365  0.1241  0.0000  0.0000  0.0000  0.0000  0.0000 </r>
        <r>  0.0000  0.0358  0.0617  0.0989  0.0000  0.0000  0.0000  0.0000  0.0000 </r>
       </set>
       <set comment="band 5">
        <r>  0.0449  0.0129  0.0194  0.0065  0.0000  0.0000  0.0000  0.0000  0.0000 </r>
        <r>  0.0591  0.0098  0.0148  0.0049  0.0000  0.0000  0.0000  0.0000  0.0000 </r>
       </set>
       <set comment="band 6">
        <r>  0.0591  0.0098  0.0148  0.0049  0.0000  0.0000  0.0000  0.0000  0.0000 </r>
        <r>  0.0449  0.0129  0.0194  0.0065  0.0000  0.0000  0.0000  0.0000  0.0000 </r>
       </set>
       <set comment="band 7">
        <r>  0.0000  0.1478  0.0365  0.0551  0.0000  0.0000  0.0000  0.0000  0.0000 </r>
        <r>  0.0000  0.1478  0.0833  0.0084  0.0000  0.0000  0.0000  0.0000  0.0000 </r>
       </set>
       <set comment="band 8">
        <r>  0.0000  0.0118  0.0831  0.1446  0.0000  0.0000  0.0000  0.0000  0.0000 </r>
        <r>  0.0000  0.0118  0.0365  0.1911  0.0000  0.0000  0.0000  0.0000  0.0000 </r>
       </set>
       <set comment="band 9">
        <r>  0.0000  0.0064  0.0021  0.0035  0.0000  0.0000  0.0000  0.0000  0.0000 </r>
        <r>  0.0000  0.0062  0.0040  0.0018  0.0000  0.0000  0.0000  0.0000  0.0000 </r>
       </set>
       <set comment="band 10">
        <r>  0.0000  0.0017  0.0035  0.0068  0.0000  0.0000  0.0000  0.0000  0.0000 </r>
        <r>  0.0000  0.0015  0.0026  0.0080  0.0000  0.0000  0.0000  0.0000  0.0000 </r>
       </set>
       <set comment="band 11">
        <r>  0.0325  0.0827  0.1240  0.0413  0.0000  0.0000  0.0000  0.0000  0.0000 </r>
        <r>  0.0702  0.0382  0.0573  0.0191  0.0000  0.0000  0.0000  0.0000  0.0000 </r>
       </set>
      </set>
     </set>
    </set>
   </array>
  </projected>
 </calculation>
 <structure name="finalpos" >
  <crystal>
   <varray name="basis" >
    <v>       3.34889800       0.00000000       1.93348700 </v>
    <v>       1.11629900       3.15737200       1.93348700 </v>
    <v>       0.00000000       0.00000000       3.86697500 </v>
   </varray>
   <i name="volume">     40.88829843 </i>
   <varray name="rec_basis" >
    <v>       0.29860569      -0.10557300       0.00000000 </v>
    <v>       0.00000000       0.31671909       0.00000000 </v>
    <v>      -0.14930281      -0.10557302       0.25860007 </v>
   </varray>
  </crystal>
  <varray name="positions" >
   <v>       0.25000000       0.25000000       0.25000000 </v>
   <v>       0.00000000       0.00000000       0.00000000 </v>
  </varray>
 </structure>
</modeling>
