phonopy:
  version: "2.30.1"
  frequency_unit_conversion_factor: 15.633302
  symmetry_tolerance: 1.00000e-03

space_group:
  type: "Fd-3m"
  number: 227
  Hall_symbol: "F 4d 2 3 -1d"

primitive_matrix:
- [  0.000000000000000,  0.500000000000000,  0.500000000000000 ]
- [  0.500000000000000,  0.000000000000000,  0.500000000000000 ]
- [  0.500000000000000,  0.500000000000000,  0.000000000000000 ]

supercell_matrix:
- [   1,   0,   0 ]
- [   0,   1,   0 ]
- [   0,   0,   1 ]

primitive_cell:
  lattice:
  - [     0.000000000000000,     2.734363997691476,     2.734363997691476 ] # a
  - [     2.734363997691476,     0.000000000000000,     2.734363997691476 ] # b
  - [     2.734363997691477,     2.734363997691476,     0.000000000000000 ] # c
  points:
  - symbol: Si # 1
    coordinates: [  0.750000000000000,  0.750000000000000,  0.750000000000000 ]
    mass: 28.085500
  - symbol: Si # 2
    coordinates: [  0.500000000000000,  0.500000000000000,  0.500000000000000 ]
    mass: 28.085500
  reciprocal_lattice: # without 2pi
  - [    -0.182857878622646,     0.182857878622646,     0.182857878622646 ] # a*
  - [     0.182857878622646,    -0.182857878622646,     0.182857878622646 ] # b*
  - [     0.182857878622646,     0.182857878622646,    -0.182857878622646 ] # c*

unit_cell:
  lattice:
  - [     5.468727995382952,     0.000000000000000,     0.000000000000000 ] # a
  - [     0.000000000000001,     5.468727995382952,     0.000000000000000 ] # b
  - [     0.000000000000000,     0.000000000000000,     5.468727995382952 ] # c
  points:
  - symbol: Si # 1
    coordinates: [  0.250000000000000,  0.250000000000000,  0.750000000000000 ]
    mass: 28.085500
    reduced_to: 1
  - symbol: Si # 2
    coordinates: [  0.500000000000000,  0.000000000000000, -0.000000000000000 ]
    mass: 28.085500
    reduced_to: 2
  - symbol: Si # 3
    coordinates: [  0.250000000000000,  0.750000000000000,  0.250000000000000 ]
    mass: 28.085500
    reduced_to: 1
  - symbol: Si # 4
    coordinates: [  0.500000000000000,  0.500000000000000,  0.500000000000000 ]
    mass: 28.085500
    reduced_to: 2
  - symbol: Si # 5
    coordinates: [  0.750000000000000,  0.250000000000000,  0.250000000000000 ]
    mass: 28.085500
    reduced_to: 1
  - symbol: Si # 6
    coordinates: [  0.000000000000000,  0.000000000000000,  0.500000000000000 ]
    mass: 28.085500
    reduced_to: 2
  - symbol: Si # 7
    coordinates: [  0.750000000000000,  0.750000000000000,  0.750000000000000 ]
    mass: 28.085500
    reduced_to: 1
  - symbol: Si # 8
    coordinates: [  0.000000000000000,  0.500000000000000, -0.000000000000000 ]
    mass: 28.085500
    reduced_to: 2

supercell:
  lattice:
  - [     5.468727995382952,     0.000000000000000,     0.000000000000000 ] # a
  - [     0.000000000000001,     5.468727995382952,     0.000000000000000 ] # b
  - [     0.000000000000000,     0.000000000000000,     5.468727995382952 ] # c
  points:
  - symbol: Si # 1
    coordinates: [  0.250000000000000,  0.250000000000000,  0.750000000000000 ]
    mass: 28.085500
    reduced_to: 1
  - symbol: Si # 2
    coordinates: [  0.500000000000000,  0.000000000000000,  1.000000000000000 ]
    mass: 28.085500
    reduced_to: 2
  - symbol: Si # 3
    coordinates: [  0.250000000000000,  0.750000000000000,  0.250000000000000 ]
    mass: 28.085500
    reduced_to: 1
  - symbol: Si # 4
    coordinates: [  0.500000000000000,  0.500000000000000,  0.500000000000000 ]
    mass: 28.085500
    reduced_to: 2
  - symbol: Si # 5
    coordinates: [  0.750000000000000,  0.250000000000000,  0.250000000000000 ]
    mass: 28.085500
    reduced_to: 1
  - symbol: Si # 6
    coordinates: [  0.000000000000000,  0.000000000000000,  0.500000000000000 ]
    mass: 28.085500
    reduced_to: 2
  - symbol: Si # 7
    coordinates: [  0.750000000000000,  0.750000000000000,  0.750000000000000 ]
    mass: 28.085500
    reduced_to: 1
  - symbol: Si # 8
    coordinates: [  0.000000000000000,  0.500000000000000,  1.000000000000000 ]
    mass: 28.085500
    reduced_to: 2

displacements:
- atom:    1
  displacement:
    [   0.0100000000000000,  0.0000000000000000,  0.0000000000000000 ]
  forces:
  - [  -0.1122161969542503,  0.0000018391019694,  0.0000000163813638 ]
  - [   0.0310748945921659, -0.0157699882984161,  0.0157650932669640 ]
  - [  -0.0111228805035353,  0.0000018949785954,  0.0000012983527995 ]
  - [   0.0310732033103704,  0.0157659742981195, -0.0157670788466930 ]
  - [  -0.0001304051838815, -0.0000000675927367,  0.0000012644712797 ]
  - [   0.0307263098657131,  0.0153576303273439,  0.0153586976230145 ]
  - [  -0.0001303859753534,  0.0000019283108941,  0.0000024035580282 ]
  - [   0.0307255350053310, -0.0153591511771083, -0.0153617449104786 ]
