LAMMPS (29 Aug 2024 - Development - patch_29Aug2024-704-g6d0e633edf)
# LAMMPS input generated from LammpsInputFile with pymatgen v2024.10.29

# Initialization
units metal
atom_style atomic
dimension 3
boundary p p p
pair_style tersoff

# AtomDefinition
read_data system.data
Reading data file ...
  triclinic box = (0 0 0) to (19.334873 16.744491 15.786858) with tilt (9.667437 9.667437 5.581497)
WARNING: Triclinic box skew is large. LAMMPS will run inefficiently. (src/domain.cpp:221)
  1 by 1 by 1 MPI processor grid
  reading atoms ...
  250 atoms
  read_data CPU = 0.001 seconds

# ForceField
include forcefield.lammps
pair_coeff * * /Users/virkaran/Code/Notebooks/lammps_flows/pmg_data/Si.tersoff Si
Reading tersoff potential file /Users/virkaran/Code/Notebooks/lammps_flows/pmg_data/Si.tersoff with DATE: 2007-10-25

# Velocities
velocity all create 300 42 mom yes rot yes dist gaussian
neigh_modify delay 5 every 1 check yes

# Ensemble
fix 1 all npt temp 300 3000 0.1 iso 1.0 1.0 0.1

# Outputs
thermo 100
dump d1 all custom 100 traj.dump id element x y z vx vy vz fx fy fz
dump_modify d1 sort id element Si

# Actions
write_restart md.restart
System init for write_restart ...
Neighbor list info ...
  update: every = 1 steps, delay = 5 steps, check = yes
  max neighbors/atom: 2000, page size: 100000
  master list distance cutoff = 5.2
  ghost atom cutoff = 5.2
  binsize = 2.6, bins = 15 9 7
  1 neighbor lists, perpetual/occasional/extra = 1 0 0
  (1) pair tersoff, perpetual
      attributes: full, newton on
      pair build: full/bin/atomonly
      stencil: full/bin/3d
      bin: standard
timestep 0.001
run 10000

CITE-CITE-CITE-CITE-CITE-CITE-CITE-CITE-CITE-CITE-CITE-CITE-CITE

Your simulation uses code contributions which should be cited:

- Type Label Framework: https://doi.org/10.1021/acs.jpcb.3c08419

@Article{Gissinger24,
 author = {Jacob R. Gissinger, Ilia Nikiforov, Yaser Afshar, Brendon Waters, Moon-ki Choi, Daniel S. Karls, Alexander Stukowski, Wonpil Im, Hendrik Heinz, Axel Kohlmeyer, and Ellad B. Tadmor},
 title = {Type Label Framework for Bonded Force Fields in LAMMPS},
 journal = {J. Phys. Chem. B},
 year =    2024,
 volume =  128,
 number =  13,
 pages =   {3282--3297}
}

CITE-CITE-CITE-CITE-CITE-CITE-CITE-CITE-CITE-CITE-CITE-CITE-CITE

Per MPI rank memory allocation (min/avg/max) = 3.117 | 3.117 | 3.117 Mbytes
   Step          Temp          E_pair         E_mol          TotEng         Press          Volume    
         0   300           -1156.9637      0             -1147.3079     -17230.329      5111.0364    
       100   161.76407     -1151.9324      0             -1146.7259     -5299.5106      5010.4371    
       200   242.00027     -1152.3297      0             -1144.5407     -2914.0158      5021.3278    
       300   223.18521     -1149.0704      0             -1141.887      -2291.9881      5009.7461    
       400   318.54172     -1148.6828      0             -1138.4303     -2549.7664      5024.2914    
       500   358.91693     -1146.2803      0             -1134.7283     -5160.0351      5015.9245    
       600   389.66383     -1143.1958      0             -1130.6542     -6761.0658      5024.7333    
       700   531.00715     -1143.761       0             -1126.6701     -3561.0702      5040.1754    
       800   455.00237     -1138.4275      0             -1123.7829     -867.70267      4986.3488    
       900   514.33601     -1137.2033      0             -1120.649      -681.80454      4986.3235    
      1000   588.76677     -1137.6459      0             -1118.696      -545.78643      5002.5348    
      1100   614.33873     -1137.5956      0             -1117.8227      1670.4289      4998.5847    
      1200   570.73787     -1135.7612      0             -1117.3915      3059.5739      4947.798     
      1300   661.20498     -1136.0258      0             -1114.7444      1903.6379      4995.82      
      1400   708.07802     -1135.4064      0             -1112.6164      1358.8723      4976.886     
      1500   657.378       -1131.5113      0             -1110.3531      2916.0446      4968.9023    
      1600   709.54252     -1130.7213      0             -1107.8841      6657.7777      4950.9406    
      1700   746.36093     -1129.9717      0             -1105.9495      4196.7763      4992.2217    
      1800   795.73958     -1130.9563      0             -1105.3448      1096.9421      4998.7568    
      1900   722.03366     -1127.5283      0             -1104.289       1181.5282      4966.2127    
      2000   855.08598     -1129.3097      0             -1101.7881      2987.969       4979.9019    
      2100   874.20286     -1127.8197      0             -1099.6828      1102.5189      4984.6443    
      2200   930.33337     -1127.3524      0             -1097.4089     -21.127272      4990.6239    
      2300   932.93449     -1125.2009      0             -1095.1736      58.338662      4973.5258    
      2400   920.31827     -1122.5029      0             -1092.8818     -2875.7957      5027.5618    
      2500   978.0176      -1123.6468      0             -1092.1685     -2622.6106      4998.2686    
      2600   991.64338     -1122.3516      0             -1090.4348     -4606.4116      5040.622     
      2700   1011.6693     -1120.4409      0             -1087.8796     -14484.345      5053.0054    
      2800   1095.6928     -1119.9428      0             -1084.6771     -4179.9645      5039.6995    
      2900   1068.6867     -1117.4278      0             -1083.0313      1116.3942      4958.7023    
      3000   1191.8598     -1116.9577      0             -1078.5968     -3761.4642      5062.0048    
      3100   1170.4314     -1113.4272      0             -1075.7559     -2560.5912      5012.1577    
      3200   1135.5415     -1114.7623      0             -1078.2141     -725.01084      4974.0127    
      3300   1143.9332     -1118.8823      0             -1082.064      -8113.0039      5075.0132    
      3400   1099.2365     -1117.3982      0             -1082.0185     -2672.8672      5004.4133    
      3500   1124.7525     -1114.9167      0             -1078.7157      732.79848      5010.5429    
      3600   1238.8709     -1114.6702      0             -1074.7962      3881.3873      5002.4696    
      3700   1266.2956     -1112.3913      0             -1071.6346      816.28453      5046.0637    
      3800   1255.6708     -1109.6456      0             -1069.2309      5731.0804      4979.7812    
      3900   1314.5285     -1108.3554      0             -1066.0463      5667.25        4989.2157    
      4000   1420.605      -1108.6766      0             -1062.9533      1939.6255      5011.1868    
      4100   1366.8813     -1105.9889      0             -1061.9947      13749.536      4984.1298    
      4200   1414.5463     -1108.4815      0             -1062.9532      8072.9773      4980.0133    
      4300   1429.0797     -1108.5639      0             -1062.5678      5640.9225      4987.158     
      4400   1439.8621     -1106.4793      0             -1060.1362      5496.2079      4988.2408    
      4500   1531.612      -1104.5473      0             -1055.2511     -196.28011      5047.2174    
      4600   1516.7323     -1101.5206      0             -1052.7034     -1401.4538      5043.7399    
      4700   1456.6613     -1099.5596      0             -1052.6758     -6289.8788      5074.8277    
      4800   1563.821      -1103.3804      0             -1053.0476     -9307.6437      5088.19      
      4900   1599.266      -1103.0598      0             -1051.5862     -5521.8657      5082.0413    
      5000   1721.3023     -1101.3739      0             -1045.9725     -6928.6755      5119.8567    
      5100   1574.8174     -1093.6244      0             -1042.9376     -2211.7608      5050.6036    
      5200   1715.1377     -1096.4708      0             -1041.2677      4025.5709      5037.2278    
      5300   1771.5816     -1099.7092      0             -1042.6894      253.32548      5070.4612    
      5400   1661.0346     -1099.9359      0             -1046.4742     -223.8792       5051.8851    
      5500   1665.6745     -1100.6997      0             -1047.0887      5119.5151      5019.7024    
      5600   1785.0642     -1096.9159      0             -1039.4622      6654.7979      5020.8084    
      5700   1705.7066     -1090.6637      0             -1035.7642     -1656.5168      5057.2708    
      5800   1888.2587     -1094.5359      0             -1033.7608     -9163.5509      5113.0801    
      5900   1959.1118     -1095.5554      0             -1032.4999     -4296.3072      5056.5393    
      6000   2061.5413     -1092.8003      0             -1026.448      -9216.2946      5103.7787    
      6100   2097.0531     -1090.3066      0             -1022.8113      4127.9378      5046.2493    
      6200   1963.3881     -1087.8464      0             -1024.6532      3855.3973      5010.1694    
      6300   1950.0021     -1093.8765      0             -1031.1142      5835.527       5034.4366    
      6400   1852.8151     -1092.9747      0             -1033.3404     -13570.934      5131.9405    
      6500   2028.7729     -1092.1321      0             -1026.8345     -5042.72        5097.8479    
      6600   2041.8497     -1088.1673      0             -1022.4488      4371.138       5064.231     
      6700   2203.8344     -1089.5282      0             -1018.596       8613.5013      5056.6384    
      6800   2180.6927     -1084.7498      0             -1014.5625      6710.9666      5014.593     
      6900   2279.9048     -1085.2785      0             -1011.898      -3382.6105      5079.6834    
      7000   2184.5522     -1086.8455      0             -1016.534       5989.326       5054.5199    
      7100   2074.8727     -1090.169       0             -1023.3877     -4390.3667      5092.7191    
      7200   2167.9224     -1089.1204      0             -1019.3442     -8612.1133      5118.7128    
      7300   2157.1731     -1082.0572      0             -1012.6269      1295.2955      5080.2954    
      7400   2285.9512     -1080.4534      0             -1006.8783      2126.784       5048.1339    
      7500   2293.0912     -1075.7677      0             -1001.9627     -11942.66       5161.4556    
      7600   2373.9524     -1076.8637      0             -1000.4562      9560.1356      5060.1084    
      7700   2281.9995     -1073.4746      0             -1000.0266      388.20776      5114.5898    
      7800   2399.841      -1069.1797      0             -991.93896     -10274.304      5176.2831    
      7900   2444.609      -1064.8547      0             -986.17303      2387.7127      5118.6156    
      8000   2472.5995     -1066.2723      0             -986.68979     -558.48335      5120.6007    
      8100   2308.7785     -1067.1549      0             -992.84506     -10500.372      5168.0181    
      8200   2375.3118     -1071.8853      0             -995.434        10788.508      5048.4897    
      8300   2562.4199     -1069.1492      0             -986.67571      1030.0857      5087.3763    
      8400   2641.6869     -1064.4712      0             -979.44643     -7964.4701      5166.1897    
      8500   2465.6899     -1057.528       0             -978.16783      5133.6777      5118.0566    
      8600   2746.8653     -1059.2094      0             -970.79941     -7308.0685      5214.1016    
      8700   2628.2309     -1046.834       0             -962.24239      2423.8917      5171.2028    
      8800   2758.6353     -1045.7167      0             -956.92786      16620.267      5099.0841    
      8900   2581.2187     -1037.4382      0             -954.35963     -5715.8042      5248.6064    
      9000   2540.8487     -1029.7568      0             -947.97757      4094.7058      5239.656     
      9100   2523.5737     -1019.8116      0             -938.58839     -10290.201      5303.1846    
      9200   2734.9537     -1018.8604      0             -930.83377     -515.66109      5364.3185    
      9300   2748.5252     -1010.7812      0             -922.3178       987.7916       5496.2927    
      9400   2637.4948     -998.19959      0             -913.30977     -11149.141      5699.9851    
      9500   2852.5894     -995.31927      0             -903.50647      2749.9863      5791.1624    
      9600   2572.4259     -976.39649      0             -893.60096     -14405.999      6112.7462    
      9700   2757.6056     -972.45397      0             -883.6983       1511.1951      6081.3868    
      9800   2922.288      -969.73066      0             -875.67456     -4323.1389      6485.8754    
      9900   3166.0614     -975.05808      0             -873.15594     -5581.5833      6386.0505    
     10000   2984.7696     -971.25771      0             -875.19058      7530.2718      6267.9108    
Loop time of 4.57953 on 1 procs for 10000 steps with 250 atoms

Performance: 188.665 ns/day, 0.127 hours/ns, 2183.628 timesteps/s, 545.907 katom-step/s
98.3% CPU use with 1 MPI tasks x no OpenMP threads

MPI task timing breakdown:
Section |  min time  |  avg time  |  max time  |%varavg| %total
---------------------------------------------------------------
Pair    | 4.3501     | 4.3501     | 4.3501     |   0.0 | 94.99
Neigh   | 0.074871   | 0.074871   | 0.074871   |   0.0 |  1.63
Comm    | 0.027452   | 0.027452   | 0.027452   |   0.0 |  0.60
Output  | 0.049789   | 0.049789   | 0.049789   |   0.0 |  1.09
Modify  | 0.067022   | 0.067022   | 0.067022   |   0.0 |  1.46
Other   |            | 0.01032    |            |       |  0.23

Nlocal:            250 ave         250 max         250 min
Histogram: 1 0 0 0 0 0 0 0 0 0
Nghost:            775 ave         775 max         775 min
Histogram: 1 0 0 0 0 0 0 0 0 0
Neighs:              0 ave           0 max           0 min
Histogram: 1 0 0 0 0 0 0 0 0 0
FullNghs:         5470 ave        5470 max        5470 min
Histogram: 1 0 0 0 0 0 0 0 0 0

Total # of neighbors = 5470
Ave neighs/atom = 21.88
Neighbor list builds = 202
Dangerous builds = 0
Total wall time: 0:00:04
