LAMMPS (29 Aug 2024 - Development - patch_29Aug2024-704-g6d0e633edf)
# LAMMPS input generated from LammpsInputFile with pymatgen v2024.10.29

# Sample input script template for MD

# Initialization

# Stage 3
units metal
atom_style atomic
dimension 3
boundary p p p

# Atom definition

# md.restart
read_data system.data
Reading data file ...
  triclinic box = (0 0 0) to (3.866975 3.348898 3.157372) with tilt (1.933487 1.933487 1.116299)
WARNING: Triclinic box skew is large. LAMMPS will run inefficiently. (src/domain.cpp:221)
  1 by 1 by 1 MPI processor grid
  reading atoms ...
  2 atoms
  read_data CPU = 0.001 seconds

# Force field settings (consult official document for detailed formats)

# Stage 7
pair_style tersoff
pair_coeff * * /Users/virkaran/Code/Notebooks/lammps_flows/test_new/../pmg_data/Si.tersoff Si
Reading tersoff potential file /Users/virkaran/Code/Notebooks/lammps_flows/test_new/../pmg_data/Si.tersoff with DATE: 2007-10-25

# Create velocities
velocity all create 300 42 mom yes rot yes dist gaussian

# Stage 9
neigh_modify delay 5 every 1 check yes

# Ensemble constraints 1 all nve 2 all nose-hoover 300 300 0.1
fix 3 all npt temp 300 300 0.1 iso 0 0 0.1

# Output settings
thermo 100
dump d1 all custom 100 traj.dump id element x y z vx vy vz fx fy fz
dump_modify d1 sort id element Si

# Actions
timestep 0.001
run 10000

CITE-CITE-CITE-CITE-CITE-CITE-CITE-CITE-CITE-CITE-CITE-CITE-CITE

Your simulation uses code contributions which should be cited:

- Type Label Framework: https://doi.org/10.1021/acs.jpcb.3c08419

@Article{Gissinger24,
 author = {Jacob R. Gissinger, Ilia Nikiforov, Yaser Afshar, Brendon Waters, Moon-ki Choi, Daniel S. Karls, Alexander Stukowski, Wonpil Im, Hendrik Heinz, Axel Kohlmeyer, and Ellad B. Tadmor},
 title = {Type Label Framework for Bonded Force Fields in LAMMPS},
 journal = {J. Phys. Chem. B},
 year =    2024,
 volume =  128,
 number =  13,
 pages =   {3282--3297}
}

CITE-CITE-CITE-CITE-CITE-CITE-CITE-CITE-CITE-CITE-CITE-CITE-CITE

Neighbor list info ...
  update: every = 1 steps, delay = 5 steps, check = yes
  max neighbors/atom: 2000, page size: 100000
  master list distance cutoff = 5.2
  ghost atom cutoff = 5.2
  binsize = 2.6, bins = 3 2 2
  1 neighbor lists, perpetual/occasional/extra = 1 0 0
  (1) pair tersoff, perpetual
      attributes: full, newton on
      pair build: full/bin/atomonly
      stencil: full/bin/3d
      bin: standard
Per MPI rank memory allocation (min/avg/max) = 3.099 | 3.099 | 3.099 Mbytes
   Step          Temp          E_pair         E_mol          TotEng         Press          Volume    
         0   300           -9.2557091      0             -9.2169311     -18235.368      40.888298    
       100   107.75843     -9.2164857      0             -9.2025568     -21242.951      41.133796    
       200   25.525963     -9.1266334      0             -9.1233339     -25634.65       41.663493    
       300   194.54605     -9.1174879      0             -9.0923408      36077.38       39.132789    
       400   633.9849      -9.2068583      0             -9.1249093      51419.666      38.357529    
       500   583.39172     -9.2506912      0             -9.1752819      30790.437      38.965096    
       600   187.16323     -9.2236805      0             -9.1994878      8994.5087      39.836427    
       700   0.48893413    -9.2061526      0             -9.2060894     -16227.095      40.931632    
       800   156.8894      -9.1601735      0             -9.139894      -67281.91       43.658026    
       900   346.66207     -9.2213205      0             -9.1765109     -46862.262      42.364596    
      1000   295.41069     -9.200503       0             -9.1623182     -21697.471      41.241267    
      1100   8.7645882     -9.1108085      0             -9.1096755     -3206.8695      40.719004    
      1200   144.36973     -9.1654823      0             -9.1468211      11768.732      39.912217    
      1300   240.69814     -9.2167466      0             -9.1856339      58409.036      38.039696    
      1400   213.67966     -9.169828       0             -9.1422077      92372.511      37.060842    
      1500   32.445264     -9.1883652      0             -9.1841713      41488.121      38.688288    
      1600   125.36651     -9.1808149      0             -9.16461        2882.0664      40.222328    
      1700   839.21108     -9.2464985      0             -9.138022      -13184.444      40.779241    
      1800   691.82162     -9.2503779      0             -9.160953      -24658.38       41.253274    
      1900   65.739838     -9.2222814      0             -9.2137838     -30862.169      41.545806    
      2000   10.541696     -9.2288218      0             -9.2274591     -37834.352      41.84125     
      2100   113.34862     -9.2527706      0             -9.2381192     -21232.6        41.003496    
      2200   179.53005     -9.2378847      0             -9.2146787      19729.496      39.367985    
      2300   9.3221783     -9.175951       0             -9.1747461      23102.352      39.411261    
      2400   163.33128     -9.1610716      0             -9.1399594      31775.637      39.149629    
      2500   745.82027     -9.2404329      0             -9.144028       31636.252      38.985813    
      2600   391.731       -9.2601674      0             -9.2095322     -30.454483      40.111766    
      2700   36.999463     -9.1991944      0             -9.1944118     -51436.47       42.633017    
      2800   37.784902     -9.2087973      0             -9.2039132     -45744.394      42.308511    
      2900   371.06128     -9.2455263      0             -9.1975629     -25411.542      41.256275    
      3000   419.94841     -9.2271077      0             -9.1728251     -14287.576      40.833739    
      3100   96.516082     -9.1872031      0             -9.1747274      4816.6414      40.115193    
      3200   52.34039      -9.1225455      0             -9.1157799      78174.254      37.618727    
      3300   391.74148     -9.1892374      0             -9.1386008      74534.537      37.596677    
      3400   370.10763     -9.252778       0             -9.2049379      27117.948      39.06742     
      3500   63.669354     -9.2325364      0             -9.2243065      1125.0761      40.1095      
      3600   39.088741     -9.2175834      0             -9.2125308     -23249.955      41.209772    
      3700   480.75588     -9.182098       0             -9.1199554     -52411.467      42.826682    
      3800   1097.4295     -9.1733579      0             -9.031504      -65439.024      43.662853    
      3900   733.8611      -9.251158       0             -9.156299      -9663.2922      40.595599    
      4000   56.815648     -9.2050131      0             -9.1976691      6314.7463      39.988595    
      4100   89.379495     -9.2064243      0             -9.1948711      17294.223      39.549972    
      4200   436.87827     -9.2285513      0             -9.1720803      39986.587      38.675583    
      4300   605.20138     -9.1893719      0             -9.1111435      71505.316      37.721088    
      4400   634.74845     -9.1669702      0             -9.0849225      18302.471      39.713865    
      4500   135.3029      -9.080536       0             -9.0630467     -26013.998      41.894041    
      4600   3.3538537     -9.1739706      0             -9.173537      -32662.52       41.805483    
      4700   190.30082     -9.2306165      0             -9.2060182     -22871.096      41.168007    
      4800   374.07938     -9.2553886      0             -9.207035      -9798.1911      40.534498    
      4900   319.61285     -9.2020425      0             -9.1607293      5612.6942      40.06379     
      5000   71.496362     -9.0446634      0             -9.0354218      34624.81       39.420962    
      5100   1.5007011     -9.0985325      0             -9.0983386      50860.262      38.618387    
      5200   164.35541     -9.1958628      0             -9.1746182      24433.576      39.317903    
      5300   554.13948     -9.2586069      0             -9.1869787     -10539.025      40.581389    
      5400   395.15306     -9.2401979      0             -9.1891204     -12815.982      40.71988     
      5500   13.756434     -9.18373        0             -9.1819518     -17923.333      41.091822    
      5600   251.19317     -9.1855105      0             -9.1530412     -25750.91       41.476012    
      5700   695.4338      -9.1964633      0             -9.1065714     -27788.069      41.597752    
      5800   923.60026     -9.2576591      0             -9.1382744      16749.124      39.522293    
      5900   284.38269     -9.2372902      0             -9.2005308      33018.67       38.883735    
      6000   1.6869583     -9.2238771      0             -9.2236591      13761.897      39.620591    
      6100   198.52401     -9.2415968      0             -9.2159356      10650.604      39.713655    
      6200   801.63758     -9.258828       0             -9.1552082      269.47801      40.161902    
      6300   848.38557     -9.1886393      0             -9.0789768     -36352.187      42.05838     
      6400   461.33993     -9.1692161      0             -9.1095832     -48065.608      42.654281    
      6500   0.053061903   -9.1749733      0             -9.1749665     -35237.824      41.924672    
      6600   220.16043     -9.2397792      0             -9.2113213     -8247.9456      40.49955     
      6700   348.14115     -9.2605608      0             -9.21556        5553.3004      39.877118    
      6800   240.79269     -9.1897219      0             -9.158597       6645.7393      40.052862    
      6900   78.868503     -9.09452        0             -9.0843255      10640.896      40.195167    
      7000   33.853189     -9.1235264      0             -9.1191505      55404.453      38.387492    
      7100   283.89547     -9.2271133      0             -9.1904169      38537.992      38.712435    
      7200   391.13762     -9.2603381      0             -9.2097796     -3721.2068      40.263919    
      7300   130.52955     -9.2098245      0             -9.1929523     -20984.056      41.150028    
      7400   17.590014     -9.1811137      0             -9.17884       -20031.138      41.19584     
      7500   323.61805     -9.2131191      0             -9.1712882     -5995.632       40.511115    
      7600   675.92808     -9.2595433      0             -9.1721728      3123.3749      40.02478     
      7700   445.83158     -9.2334901      0             -9.1758619      10697.63       39.77213     
      7800   12.915661     -9.1816551      0             -9.1799856      15122.712      39.706752    
      7900   176.82649     -9.2147268      0             -9.1918702      2076.2598      40.146115    
      8000   390.69206     -9.247518       0             -9.1970171     -21210.033      41.062793    
      8100   222.98388     -9.2056799      0             -9.176857      -47206.833      42.423842    
      8200   11.759689     -9.1468589      0             -9.1453388     -59590.453      43.273729    
      8300   140.66337     -9.1641179      0             -9.1459357     -22805.505      41.406536    
      8400   1027.8759     -9.2237401      0             -9.0908767      6594.6188      40.050786    
      8500   628.64181     -9.2516202      0             -9.1703619      8375.017       39.831664    
      8600   162.22469     -9.2399945      0             -9.2190253      15203.803      39.534471    
      8700   0.019055286   -9.1997084      0             -9.1997059      37738.891      38.786314    
      8800   235.80744     -9.2127746      0             -9.1822941      28116.5        39.134384    
      8900   998.70412     -9.2592885      0             -9.1301959     -1790.4738      40.273763    
      9000   908.13589     -9.2357933      0             -9.1184075     -31502.991      41.655787    
      9100   37.719023     -9.2200238      0             -9.2151482     -28504.527      41.440665    
      9200   49.064857     -9.2383522      0             -9.23201       -16363.385      40.82991     
      9300   281.78538     -9.2575478      0             -9.2211242     -10057.741      40.524787    
      9400   338.30383     -9.216695       0             -9.1729658     -5361.3941      40.47383     
      9500   58.231969     -9.1401442      0             -9.1326171      46896.589      38.641522    
      9600   57.666488     -9.1410839      0             -9.1336299      58494.087      38.229938    
      9700   422.43553     -9.2389697      0             -9.1843656      29143.307      39.040381    
      9800   185.35432     -9.2588455      0             -9.2348865      8914.412       39.725545    
      9900   9.8655939     -9.2464317      0             -9.2451565     -9025.2525      40.479298    
     10000   55.349767     -9.1855999      0             -9.1784453     -61155.888      43.198813    
Loop time of 0.0344066 on 1 procs for 10000 steps with 2 atoms

Performance: 25111.443 ns/day, 0.001 hours/ns, 290641.701 timesteps/s, 581.283 katom-step/s
96.5% CPU use with 1 MPI tasks x no OpenMP threads

MPI task timing breakdown:
Section |  min time  |  avg time  |  max time  |%varavg| %total
---------------------------------------------------------------
Pair    | 0.022779   | 0.022779   | 0.022779   |   0.0 | 66.20
Neigh   | 0          | 0          | 0          |   0.0 |  0.00
Comm    | 0.0033041  | 0.0033041  | 0.0033041  |   0.0 |  9.60
Output  | 0.000912   | 0.000912   | 0.000912   |   0.0 |  2.65
Modify  | 0.0059269  | 0.0059269  | 0.0059269  |   0.0 | 17.23
Other   |            | 0.001485   |            |       |  4.32

Nlocal:              2 ave           2 max           2 min
Histogram: 1 0 0 0 0 0 0 0 0 0
Nghost:            126 ave         126 max         126 min
Histogram: 1 0 0 0 0 0 0 0 0 0
Neighs:              0 ave           0 max           0 min
Histogram: 1 0 0 0 0 0 0 0 0 0
FullNghs:           56 ave          56 max          56 min
Histogram: 1 0 0 0 0 0 0 0 0 0

Total # of neighbors = 56
Ave neighs/atom = 28
Neighbor list builds = 0
Dangerous builds = 0
write_restart md.restart
System init for write_restart ...
Total wall time: 0:00:00
