ITEM: TIMESTEP
0
ITEM: NUMBER OF ATOMS
2
ITEM: BOX BOUNDS xy xz yz pp pp pp
0.0000000000000000e+00 7.7339489999999991e+00 1.9334870000000000e+00
0.0000000000000000e+00 4.4651969999999999e+00 1.9334870000000000e+00
0.0000000000000000e+00 3.1573720000000001e+00 1.1162989999999999e+00
ITEM: ATOMS id element x y z vx vy vz fx fy fz
1 Si 1.93349 1.1163 0.789343 -2.98014 -1.72059 -1.21664 6.84347e-06 2.39893e-06 2.51811e-06
2 Si 0 0 0 2.98014 1.72059 1.21664 -6.84347e-06 -2.39893e-06 -2.51811e-06
ITEM: TIMESTEP
100
ITEM: NUMBER OF ATOMS
2
ITEM: BOX BOUNDS xy xz yz pp pp pp
-3.8619019570657032e-03 7.7455347038738172e+00 1.9373489009583769e+00
-3.3445046167136509e-03 4.4707711736953977e+00 1.9373489009583769e+00
-3.1532298776134051e-03 3.1605252298776136e+00 1.1185286690786842e+00
ITEM: ATOMS id element x y z vx vy vz fx fy fz
1 Si 1.96327 1.13238 0.799926 1.78608 1.0312 0.729166 -0.759352 -0.43841 -0.310004
2 Si -0.033646 -0.0205403 -0.0153125 -1.78608 -1.0312 -0.729166 0.759352 0.43841 0.310004
ITEM: TIMESTEP
200
ITEM: NUMBER OF ATOMS
2
ITEM: BOX BOUNDS xy xz yz pp pp pp
-1.2142478150970287e-02 7.7703764281728196e+00 1.9456294750109260e+00
-1.0515692704202753e-02 4.4827231524136408e+00 1.9456294750109260e+00
-9.9142923149185252e-03 3.1672862923149205e+00 1.1233094597094391e+00
ITEM: ATOMS id element x y z vx vy vz fx fy fz
1 Si 1.88442 1.08447 0.764356 0.869304 0.501873 0.354888 1.64042 0.947102 0.669701
2 Si 0.0369203 0.0178109 0.0101156 -0.869304 -0.501873 -0.354888 -1.64042 -0.947102 -0.669701
ITEM: TIMESTEP
300
ITEM: NUMBER OF ATOMS
2
ITEM: BOX BOUNDS xy xz yz pp pp pp
2.8076695087321558e-02 7.6497189292593006e+00 1.9054103121733148e+00
2.4315126946652686e-02 4.4246717932626680e+00 1.9054103121733148e+00
2.2924526515233648e-02 3.1344474734847676e+00 1.1000889202093225e+00
ITEM: ATOMS id element x y z vx vy vz fx fy fz
1 Si 1.99096 1.15758 0.824268 -2.39987 -1.38556 -0.979742 -1.38944 -0.802207 -0.567241
2 Si -0.0293937 -0.00886565 -0.000537723 2.39987 1.38556 0.979742 1.38944 0.802207 0.567241
ITEM: TIMESTEP
400
ITEM: NUMBER OF ATOMS
2
ITEM: BOX BOUNDS xy xz yz pp pp pp
4.0743420393023123e-02 7.6117187598934226e+00 1.8927435901432283e+00
3.5284830925294421e-02 4.4063889554820062e+00 1.8927435901432283e+00
3.3266864857714705e-02 3.1241051351422859e+00 1.0927757864073036e+00
ITEM: ATOMS id element x y z vx vy vz fx fy fz
1 Si 1.91047 1.11477 0.79658 4.33227 2.50125 1.76864 0.90057 0.519955 0.367659
2 Si 0.0637603 0.048574 0.0426635 -4.33227 -2.50125 -1.76864 -0.90057 -0.519955 -0.367659
ITEM: TIMESTEP
500
ITEM: NUMBER OF ATOMS
2
ITEM: BOX BOUNDS xy xz yz pp pp pp
3.0802307404395667e-02 7.6415420937177592e+00 1.9026847005610825e+00
2.6675576041208460e-02 4.4207377119082993e+00 1.9026847005610825e+00
2.5149979747486187e-02 3.1322220202525148e+00 1.0985152879495115e+00
ITEM: ATOMS id element x y z vx vy vz fx fy fz
1 Si 1.93704 1.12724 0.80337 -4.1558 -2.39938 -1.69661 -0.120149 -0.0693722 -0.0490517
2 Si 0.0272451 0.0246218 0.0236977 4.1558 2.39938 1.69661 0.120149 0.0693722 0.0490517
ITEM: TIMESTEP
600
ITEM: NUMBER OF ATOMS
2
ITEM: BOX BOUNDS xy xz yz pp pp pp
1.6724207820033490e-02 7.6837763851896526e+00 1.9167627965048468e+00
1.4483586296802884e-02 4.4410576923885738e+00 1.9167627965048468e+00
1.3655259083173438e-02 3.1437167409168234e+00 1.1066432786853828e+00
ITEM: ATOMS id element x y z vx vy vz fx fy fz
1 Si 1.96233 1.13778 0.807948 2.35388 1.35904 0.960975 -0.80569 -0.465168 -0.328922
2 Si -0.0121238 -0.00217184 0.0018781 -2.35388 -1.35904 -0.960975 0.80569 0.465168 0.328922
ITEM: TIMESTEP
700
ITEM: NUMBER OF ATOMS
2
ITEM: BOX BOUNDS xy xz yz pp pp pp
-6.8280315895711565e-04 7.7359974091237209e+00 1.9341698029823846e+00
-5.9132477801079354e-04 4.4661825411789620e+00 1.9341698029823846e+00
-5.5750646839091182e-04 3.1579295064683883e+00 1.1166932164009560e+00
ITEM: ATOMS id element x y z vx vy vz fx fy fz
1 Si 1.90182 1.09782 0.776136 0.120316 0.0694514 0.0491147 1.06708 0.616085 0.435634
2 Si 0.030985 0.0176925 0.0123709 -0.120316 -0.0694514 -0.0491147 -1.06708 -0.616085 -0.435634
ITEM: TIMESTEP
800
ITEM: NUMBER OF ATOMS
2
ITEM: BOX BOUNDS xy xz yz pp pp pp
-4.2707154032842018e-02 7.8620704400103758e+00 1.9761941429887695e+00
-3.6985473846170867e-02 4.5268394490475590e+00 1.9761941429887695e+00
-3.4870246728510711e-02 3.1922422467285108e+00 1.1409559752013945e+00
ITEM: ATOMS id element x y z vx vy vz fx fy fz
1 Si 1.95502 1.1164 0.780698 -2.15512 -1.24427 -0.879828 -0.488767 -0.282197 -0.19954
2 Si -0.0642388 -0.049417 -0.0436606 2.15512 1.24427 0.879828 0.488767 0.282197 0.19954
ITEM: TIMESTEP
900
ITEM: NUMBER OF ATOMS
2
ITEM: BOX BOUNDS xy xz yz pp pp pp
-2.2995345683534091e-02 7.8029350251574083e+00 1.9564823397369384e+00
-1.9914550047238130e-02 4.4983879127809914e+00 1.9564823397369384e+00
-1.8775621924504327e-02 3.1761476219245095e+00 1.1295753627337561e+00
ITEM: ATOMS id element x y z vx vy vz fx fy fz
1 Si 1.94191 1.11452 0.783394 3.20352 1.84959 1.30784 -0.222244 -0.128308 -0.0907296
2 Si -0.0314193 -0.0247779 -0.0222146 -3.20352 -1.84959 -1.30784 0.222244 0.128308 0.0907296
ITEM: TIMESTEP
1000
ITEM: NUMBER OF ATOMS
2
ITEM: BOX BOUNDS xy xz yz pp pp pp
-5.5476830359719800e-03 7.7505920462386531e+00 1.9390346816013415e+00
-4.8044336008944812e-03 4.4732043883783970e+00 1.9390346816013415e+00
-4.5296644231353550e-03 3.1619016644231386e+00 1.1195019547775047e+00
ITEM: ATOMS id element x y z vx vy vz fx fy fz
1 Si 1.90115 1.09603 0.773877 -2.95724 -1.70741 -1.2073 1.06893 0.617153 0.43639
2 Si 0.0267887 0.0138653 0.00867171 2.95724 1.70741 1.2073 -1.06893 -0.617153 -0.43639
ITEM: TIMESTEP
1100
ITEM: NUMBER OF ATOMS
2
ITEM: BOX BOUNDS xy xz yz pp pp pp
2.6721776310623833e-03 7.7259324684888684e+00 1.9308148230599651e+00
2.3141733071179536e-03 4.4613400449488179e+00 1.9308148230599651e+00
2.1818239919679430e-03 3.1551901760080363e+00 1.1147562182559347e+00
ITEM: ATOMS id element x y z vx vy vz fx fy fz
1 Si 1.99714 1.15382 0.816421 0.509365 0.294113 0.207958 -1.31893 -0.761508 -0.538458
2 Si -0.0609835 -0.034438 -0.0238057 -0.509365 -0.294113 -0.207958 1.31893 0.761508 0.538458
ITEM: TIMESTEP
1200
ITEM: NUMBER OF ATOMS
2
ITEM: BOX BOUNDS xy xz yz pp pp pp
1.5509422573908804e-02 7.6874207402997552e+00 1.9179775814368312e+00
1.3431551597542713e-02 4.4428110833445871e+00 1.9179775814368312e+00
1.2663391041067182e-02 3.1447086089589358e+00 1.1073446349421268e+00
ITEM: ATOMS id element x y z vx vy vz fx fy fz
1 Si 1.89132 1.09643 0.778459 2.06734 1.1936 0.843994 1.56773 0.905144 0.640027
2 Si 0.0576779 0.0377783 0.0298788 -2.06734 -1.1936 -0.843994 -1.56773 -0.905144 -0.640027
ITEM: TIMESTEP
1300
ITEM: NUMBER OF ATOMS
2
ITEM: BOX BOUNDS xy xz yz pp pp pp
4.5985728331295078e-02 7.5959918387899483e+00 1.8875012835606200e+00
3.9824801980154811e-02 4.3988223379610165e+00 1.8875012835606200e+00
3.7547191547097243e-02 3.1198248084529059e+00 1.0897491399411701e+00
ITEM: ATOMS id element x y z vx vy vz fx fy fz
1 Si 1.94736 1.13758 0.81378 -2.66938 -1.5412 -1.08978 -0.474525 -0.273975 -0.193727
2 Si 0.0321129 0.0318152 0.0318836 2.66938 1.5412 1.08978 0.474525 0.273975 0.193727
ITEM: TIMESTEP
1400
ITEM: NUMBER OF ATOMS
2
ITEM: BOX BOUNDS xy xz yz pp pp pp
6.2316628265176789e-02 7.5469991474346454e+00 1.8711703878499095e+00
5.3967773715626360e-02 4.3752507212173422e+00 1.8711703878499095e+00
5.0881316072351981e-02 3.1064906839276549e+00 1.0803204949329694e+00
ITEM: ATOMS id element x y z vx vy vz fx fy fz
1 Si 1.94829 1.14284 0.820828 2.51509 1.45213 1.0268 -0.538748 -0.31105 -0.219944
2 Si 0.0475119 0.0454202 0.0448373 -2.51509 -1.45213 -1.0268 0.538748 0.31105 0.219944
ITEM: TIMESTEP
1500
ITEM: NUMBER OF ATOMS
2
ITEM: BOX BOUNDS xy xz yz pp pp pp
3.5318563631595266e-02 7.6279933273719873e+00 1.8981684455017902e+00
3.0586767979806952e-02 4.4142190594559061e+00 1.8981684455017902e+00
2.8837487672049956e-02 3.1285345123279575e+00 1.0959078274357141e+00
ITEM: ATOMS id element x y z vx vy vz fx fy fz
1 Si 1.90176 1.10818 0.790809 -0.980045 -0.565857 -0.400111 1.24779 0.720428 0.509414
2 Si 0.0670457 0.048905 0.0417902 0.980045 0.565857 0.400111 -1.24779 -0.720428 -0.509414
ITEM: TIMESTEP
1600
ITEM: NUMBER OF ATOMS
2
ITEM: BOX BOUNDS xy xz yz pp pp pp
1.0554778123472507e-02 7.7022846710885293e+00 1.9229322246059979e+00
9.1407043873133163e-03 4.4499624945074521e+00 1.9229322246059979e+00
8.6179406159261774e-03 3.1487540593840828e+00 1.1102051988947641e+00
ITEM: ATOMS id element x y z vx vy vz fx fy fz
1 Si 1.97781 1.14494 0.811747 -1.92648 -1.11228 -0.786489 -1.09369 -0.631467 -0.446505
2 Si -0.0337685 -0.01645 -0.00947717 1.92648 1.11228 0.786489 1.09369 0.631467 0.446505
ITEM: TIMESTEP
1700
ITEM: NUMBER OF ATOMS
2
ITEM: BOX BOUNDS xy xz yz pp pp pp
1.7205324720554309e-03 7.7287874034737012e+00 1.9317664679728768e+00
1.4900245681944509e-03 4.4627136260162903e+00 1.9317664679728768e+00
1.4048089404156299e-03 3.1559671910595934e+00 1.1153056505844856e+00
ITEM: ATOMS id element x y z vx vy vz fx fy fz
1 Si 1.91866 1.10823 0.783992 4.98435 2.87779 2.03488 0.478155 0.276081 0.195212
2 Si 0.0165486 0.0100518 0.00745858 -4.98435 -2.87779 -2.03488 -0.478155 -0.276081 -0.195212
ITEM: TIMESTEP
1800
ITEM: NUMBER OF ATOMS
2
ITEM: BOX BOUNDS xy xz yz pp pp pp
-5.7358348298722026e-03 7.7511565015230444e+00 1.9392228333465857e+00
-4.9673778056750929e-03 4.4734759620205908e+00 1.9392228333465857e+00
-4.6832897260678475e-03 3.1620552897260739e+00 1.1196105842149202e+00
ITEM: ATOMS id element x y z vx vy vz fx fy fz
1 Si 1.93234 1.11398 0.786533 -4.52553 -2.6129 -1.84757 0.034001 0.019637 0.0138827
2 Si -0.00458797 -0.00430438 -0.0042146 4.52553 2.6129 1.84757 -0.034001 -0.019637 -0.0138827
ITEM: TIMESTEP
1900
ITEM: NUMBER OF ATOMS
2
ITEM: BOX BOUNDS xy xz yz pp pp pp
-1.0308802851596828e-02 7.7648754032230798e+00 1.9437958001857414e+00
-8.9276835904343859e-03 4.4800764708734793e+00 1.9437958001857414e+00
-8.4171026389225096e-03 3.1657891026389304e+00 1.1222507872830472e+00
ITEM: ATOMS id element x y z vx vy vz fx fy fz
1 Si 1.95724 1.12704 0.794831 1.39504 0.805459 0.569533 -0.610422 -0.35244 -0.249208
2 Si -0.0340593 -0.0226404 -0.0181133 -1.39504 -0.805459 -0.569533 0.610422 0.35244 0.249208
ITEM: TIMESTEP
2000
ITEM: NUMBER OF ATOMS
2
ITEM: BOX BOUNDS xy xz yz pp pp pp
-1.4905561737074205e-02 7.7786656775020679e+00 1.9483925578824974e+00
-1.2908592863977083e-02 4.4867113188702348e+00 1.9483925578824974e+00
-1.2170340711513563e-02 3.1695423407115206e+00 1.1249047260062601e+00
ITEM: ATOMS id element x y z vx vy vz fx fy fz
1 Si 1.9188 1.10351 0.777261 0.558635 0.322538 0.228065 0.441184 0.254726 0.180115
2 Si -0.000215554 -0.00442694 -0.00617306 -0.558635 -0.322538 -0.228065 -0.441184 -0.254726 -0.180115
ITEM: TIMESTEP
2100
ITEM: NUMBER OF ATOMS
2
ITEM: BOX BOUNDS xy xz yz pp pp pp
-1.8140847411676052e-03 7.7393912532852571e+00 1.9353010842720459e+00
-1.5710431956603749e-03 4.4678154050133436e+00 1.9353010842720459e+00
-1.4811940515194173e-03 3.1588531940515310e+00 1.1173463618176869e+00
ITEM: ATOMS id element x y z vx vy vz fx fy fz
1 Si 1.93925 1.1191 0.790953 -1.83181 -1.05763 -0.747845 -0.168131 -0.0970736 -0.0686404
2 Si -0.00757267 -0.00489582 -0.00383216 1.83181 1.05763 0.747845 0.168131 0.0970736 0.0686404
ITEM: TIMESTEP
2200
ITEM: NUMBER OF ATOMS
2
ITEM: BOX BOUNDS xy xz yz pp pp pp
2.4267013438594432e-02 7.6611479722351206e+00 1.9092199928368578e+00
2.1015846435641694e-02 4.4301705934575555e+00 1.9092199928368578e+00
1.9813934342648366e-02 3.1375580656573687e+00 1.1022884398932005e+00
ITEM: ATOMS id element x y z vx vy vz fx fy fz
1 Si 1.95372 1.13499 0.807512 2.30536 1.33106 0.941181 -0.612241 -0.353489 -0.24995
2 Si 0.00402972 0.00933159 0.011552 -2.30536 -1.33106 -0.941181 0.612241 0.353489 0.24995
ITEM: TIMESTEP
2300
ITEM: NUMBER OF ATOMS
2
ITEM: BOX BOUNDS xy xz yz pp pp pp
2.3567690179870416e-02 7.6632459416496008e+00 1.9099193159147361e+00
2.0410214834068973e-02 4.4311799793396158e+00 1.9099193159147361e+00
1.9242939268708584e-02 3.1381290607313095e+00 1.1026921941736858e+00
ITEM: ATOMS id element x y z vx vy vz fx fy fz
1 Si 1.89496 1.10086 0.783235 -0.525324 -0.303315 -0.214469 1.46931 0.84833 0.59985
2 Si 0.0620964 0.0426558 0.0349726 0.525324 0.303315 0.214469 -1.46931 -0.84833 -0.59985
ITEM: TIMESTEP
2400
ITEM: NUMBER OF ATOMS
2
ITEM: BOX BOUNDS xy xz yz pp pp pp
2.7803410908498114e-02 7.6505387816544310e+00 1.9056835962814653e+00
2.4078455946736500e-02 4.4250662448820739e+00 1.9056835962814653e+00
2.2701390908139864e-02 3.1346706090918772e+00 1.1002467008288119e+00
ITEM: ATOMS id element x y z vx vy vz fx fy fz
1 Si 1.97992 1.15114 0.819651 -2.19889 -1.2696 -0.897717 -1.21341 -0.7006 -0.495386
2 Si -0.0186314 -0.00273152 0.00374418 2.19889 1.2696 0.897717 1.21341 0.7006 0.495386
ITEM: TIMESTEP
2500
ITEM: NUMBER OF ATOMS
2
ITEM: BOX BOUNDS xy xz yz pp pp pp
3.0465155445120601e-02 7.6425535494212129e+00 1.9030218524331699e+00
2.6383593930616057e-02 4.4212243487011627e+00 1.9030218524331699e+00
2.4874696313811308e-02 3.1324973036862080e+00 1.0987099426317783e+00
ITEM: ATOMS id element x y z vx vy vz fx fy fz
1 Si 1.91898 1.11672 0.795856 4.69882 2.71297 1.91832 0.527526 0.304583 0.215367
2 Si 0.0449762 0.0347621 0.030799 -4.69882 -2.71297 -1.91832 -0.527526 -0.304583 -0.215367
ITEM: TIMESTEP
2600
ITEM: NUMBER OF ATOMS
2
ITEM: BOX BOUNDS xy xz yz pp pp pp
1.2318299516493622e-02 7.6969941078215323e+00 1.9211687036690182e+00
1.0667958446636639e-02 4.4474170713792756e+00 1.9211687036690182e+00
1.0057849864823233e-02 3.1473141501351991e+00 1.1091870298259128e+00
ITEM: ATOMS id element x y z vx vy vz fx fy fz
1 Si 1.92987 1.11777 0.792895 -3.40538 -1.96617 -1.39027 0.116781 0.0674374 0.0476802
2 Si 0.0159361 0.0127572 0.011535 3.40538 1.96617 1.39027 -0.116781 -0.0674374 -0.0476802
ITEM: TIMESTEP
2700
ITEM: NUMBER OF ATOMS
2
ITEM: BOX BOUNDS xy xz yz pp pp pp
-2.7118732128912585e-02 7.8153051823609108e+00 1.9606057251160052e+00
-2.3485506833909917e-02 4.5043395067145715e+00 1.9606057251160052e+00
-2.2142353001839782e-02 3.1795143530018635e+00 1.1319559998806630e+00
ITEM: ATOMS id element x y z vx vy vz fx fy fz
1 Si 1.95437 1.12053 0.786797 1.04658 0.604255 0.427268 -0.508108 -0.293371 -0.207439
2 Si -0.0479995 -0.0355415 -0.0306671 -1.04658 -0.604255 -0.427268 0.508108 0.293371 0.207439
ITEM: TIMESTEP
2800
ITEM: NUMBER OF ATOMS
2
ITEM: BOX BOUNDS xy xz yz pp pp pp
-2.2131593271545780e-02 7.8003437683681565e+00 1.9556185875483112e+00
-1.9166518646719827e-02 4.4971411939290320e+00 1.9556185875483112e+00
-1.8070371003414062e-02 3.1754423710034341e+00 1.1290766752823169e+00
ITEM: ATOMS id element x y z vx vy vz fx fy fz
1 Si 1.91368 1.09847 0.772222 1.05762 0.610652 0.431782 0.586869 0.33884 0.239592
2 Si -0.00232566 -0.00773107 -0.00998448 -1.05762 -0.610652 -0.431782 -0.586869 -0.33884 -0.239592
ITEM: TIMESTEP
2900
ITEM: NUMBER OF ATOMS
2
ITEM: BOX BOUNDS xy xz yz pp pp pp
-5.7828588867757632e-03 7.7512975736694072e+00 1.9392698573913230e+00
-5.0081018264163356e-03 4.4735438353803811e+00 1.9392698573913230e+00
-4.7216847093682554e-03 3.1620936847093888e+00 1.1196377335539687e+00
ITEM: ATOMS id element x y z vx vy vz fx fy fz
1 Si 1.94414 1.12078 0.791332 -3.31431 -1.91361 -1.35309 -0.298955 -0.172596 -0.122046
2 Si -0.0164384 -0.0111599 -0.00907173 3.31431 1.91361 1.35309 0.298955 0.172596 0.122046
ITEM: TIMESTEP
3000
ITEM: NUMBER OF ATOMS
2
ITEM: BOX BOUNDS xy xz yz pp pp pp
8.6037279270865185e-04 7.7313678820668361e+00 1.9326266274297794e+00
7.4510456487362640e-04 4.4639551592068569e+00 1.9326266274297794e+00
7.0249147338894997e-04 3.1566695085266332e+00 1.1158022637717340e+00
ITEM: ATOMS id element x y z vx vy vz fx fy fz
1 Si 1.95995 1.13183 0.8005 3.5259 2.03575 1.43947 -0.701758 -0.405183 -0.286499
2 Si -0.0256068 -0.0145364 -0.0101029 -3.5259 -2.03575 -1.43947 0.701758 0.405183 0.286499
ITEM: TIMESTEP
3100
ITEM: NUMBER OF ATOMS
2
ITEM: BOX BOUNDS xy xz yz pp pp pp
1.2263575204986409e-02 7.6971582807277406e+00 1.9212234279663702e+00
1.0620565810956883e-02 4.4474960590959611e+00 1.9212234279663702e+00
1.0013167649692374e-02 3.1473588323503296e+00 1.1092186249069234e+00
ITEM: ATOMS id element x y z vx vy vz fx fy fz
1 Si 1.89598 1.09818 0.779035 -1.69036 -0.975907 -0.690079 1.35852 0.784367 0.554622
2 Si 0.0497748 0.0322787 0.0253274 1.69036 0.975907 0.690079 -1.35852 -0.784367 -0.554622
ITEM: TIMESTEP
3200
ITEM: NUMBER OF ATOMS
2
ITEM: BOX BOUNDS xy xz yz pp pp pp
5.2974299566518723e-02 7.5750261286987337e+00 1.8805127141326334e+00
4.5877081147334686e-02 4.3887352072205328e+00 1.8805127141326334e+00
4.3253336308352222e-02 3.1141186636916705e+00 1.0857142883678701e+00
ITEM: ATOMS id element x y z vx vy vz fx fy fz
1 Si 1.97588 1.15606 0.828275 -1.24475 -0.718735 -0.508192 -1.26254 -0.728942 -0.515434
2 Si 0.0105859 0.0214038 0.0259482 1.24475 0.718735 0.508192 1.26254 0.728942 0.515434
ITEM: TIMESTEP
3300
ITEM: NUMBER OF ATOMS
2
ITEM: BOX BOUNDS xy xz yz pp pp pp
5.3341780668075878e-02 7.5739236855841261e+00 1.8801452331261084e+00
4.6195329061023978e-02 4.3882047940944009e+00 1.8801452331261084e+00
4.3553383384059959e-02 3.1138186166159652e+00 1.0855021231554316e+00
ITEM: ATOMS id element x y z vx vy vz fx fy fz
1 Si 1.91518 1.12113 0.803648 3.40543 1.96619 1.39028 0.742425 0.428633 0.303092
2 Si 0.0716441 0.0567621 0.0510252 -3.40543 -1.96619 -1.39028 -0.742425 -0.428633 -0.303092
ITEM: TIMESTEP
3400
ITEM: NUMBER OF ATOMS
2
ITEM: BOX BOUNDS xy xz yz pp pp pp
2.9138254461667672e-02 7.6465342516852806e+00 1.9043487530734815e+00
2.5234464171650487e-02 4.4231395647373333e+00 1.9043487530734815e+00
2.3791286151630241e-02 3.1335807138483962e+00 1.0994760289089904e+00
ITEM: ATOMS id element x y z vx vy vz fx fy fz
1 Si 1.93109 1.12332 0.800259 -3.31009 -1.91109 -1.35134 0.082639 0.0477284 0.0337429
2 Si 0.0315374 0.0266201 0.0247709 3.31009 1.91109 1.35134 -0.082639 -0.0477284 -0.0337429
ITEM: TIMESTEP
3500
ITEM: NUMBER OF ATOMS
2
ITEM: BOX BOUNDS xy xz yz pp pp pp
1.2354476994327469e-02 7.6968855754067214e+00 1.9211325262005341e+00
1.0699289056006121e-02 4.4473648537032133e+00 1.9211325262005341e+00
1.0087388653041766e-02 3.1472846113469846e+00 1.1091661427592299e+00
ITEM: ATOMS id element x y z vx vy vz fx fy fz
1 Si 1.95885 1.13451 0.80474 1.37292 0.79263 0.560484 -0.709778 -0.409801 -0.289769
2 Si -0.0130044 -0.00394193 -0.00026543 -1.37292 -0.79263 -0.560484 0.709778 0.409801 0.289769
ITEM: TIMESTEP
3600
ITEM: NUMBER OF ATOMS
2
ITEM: BOX BOUNDS xy xz yz pp pp pp
-5.0539564751103704e-03 7.7491108668113906e+00 1.9385409551681501e+00
-4.3768539314534664e-03 4.4724917556810944e+00 1.9385409551681501e+00
-4.1265383571585162e-03 3.1614985383571841e+00 1.1192169017496540e+00
ITEM: ATOMS id element x y z vx vy vz fx fy fz
1 Si 1.90689 1.09948 0.77642 1.07571 0.6211 0.439169 0.866557 0.500306 0.35377
2 Si 0.0215459 0.0109806 0.00673279 -1.07571 -0.6211 -0.439169 -0.866557 -0.500306 -0.35377
ITEM: TIMESTEP
3700
ITEM: NUMBER OF ATOMS
2
ITEM: BOX BOUNDS xy xz yz pp pp pp
-3.0083004274133726e-02 7.8241979972634290e+00 1.9635699964946594e+00
-2.6052641366349386e-02 4.5086180637575772e+00 1.9635699964946594e+00
-2.4562671176040995e-02 3.1819346711760685e+00 1.1336674223912426e+00
ITEM: ATOMS id element x y z vx vy vz fx fy fz
1 Si 1.96067 1.12331 0.788158 -3.77257 -2.17812 -1.54015 -0.630316 -0.363898 -0.25732
2 Si -0.0572631 -0.0417445 -0.0356587 3.77257 2.17812 1.54015 0.630316 0.363898 0.25732
ITEM: TIMESTEP
3800
ITEM: NUMBER OF ATOMS
2
ITEM: BOX BOUNDS xy xz yz pp pp pp
-4.2779988500610426e-02 7.8622889433759804e+00 1.9762669774376962e+00
-3.7048550334489512e-02 4.5269445765155201e+00 1.9762669774376962e+00
-3.4929715824922145e-02 3.1923017158249540e+00 1.1409980261810413e+00
ITEM: ATOMS id element x y z vx vy vz fx fy fz
1 Si 1.94251 1.10916 0.775562 5.69988 3.2908 2.32696 -0.218317 -0.126062 -0.0891334
2 Si -0.0518032 -0.0422587 -0.0386136 -5.69988 -3.2908 -2.32696 0.218317 0.126062 0.0891334
ITEM: TIMESTEP
3900
ITEM: NUMBER OF ATOMS
2
ITEM: BOX BOUNDS xy xz yz pp pp pp
4.6246786708816967e-03 7.7200749663792037e+00 1.9288623225250543e+00
4.0050885127429952e-03 4.4585218532760322e+00 1.9288623225250543e+00
3.7760344828990837e-03 3.1535959655171326e+00 1.1136289417887868e+00
ITEM: ATOMS id element x y z vx vy vz fx fy fz
1 Si 1.92098 1.11041 0.786123 -4.66107 -2.69101 -1.90285 0.404966 0.233809 0.165327
2 Si 0.0171357 0.0112285 0.00888368 4.66107 2.69101 1.90285 -0.404966 -0.233809 -0.165327
ITEM: TIMESTEP
4000
ITEM: NUMBER OF ATOMS
2
ITEM: BOX BOUNDS xy xz yz pp pp pp
1.4286745177750082e-02 7.6910887718558190e+00 1.9192002585167953e+00
1.2372682097059955e-02 4.4445758656345795e+00 1.9192002585167953e+00
1.1665079085184047e-02 3.1457069209148458e+00 1.1080505477316509e+00
ITEM: ATOMS id element x y z vx vy vz fx fy fz
1 Si 1.96968 1.14132 0.809952 1.29693 0.748745 0.529456 -0.956749 -0.552369 -0.390588
2 Si -0.0219076 -0.00852382 -0.00311111 -1.29693 -0.748745 -0.529456 0.956749 0.552369 0.390588
ITEM: TIMESTEP
4100
ITEM: NUMBER OF ATOMS
2
ITEM: BOX BOUNDS xy xz yz pp pp pp
2.1329608247572070e-02 7.6699601862889173e+00 1.9121573972682577e+00
1.8471979363994872e-02 4.4344103714038798e+00 1.9121573972682577e+00
1.7415552945628819e-02 3.1399564470544039e+00 1.1039843507678853e+00
ITEM: ATOMS id element x y z vx vy vz fx fy fz
1 Si 1.90222 1.10441 0.785287 1.62666 0.939144 0.664078 1.15676 0.66784 0.472239
2 Si 0.0525958 0.0365231 0.0301798 -1.62666 -0.939144 -0.664078 -1.15676 -0.66784 -0.472239
ITEM: TIMESTEP
4200
ITEM: NUMBER OF ATOMS
2
ITEM: BOX BOUNDS xy xz yz pp pp pp
3.5526377600153564e-02 7.6273698855737493e+00 1.8979606315869642e+00
3.0766740124363274e-02 4.4139191059174578e+00 1.8979606315869642e+00
2.9007167074062503e-02 3.1283648329259708e+00 1.0957878460418300e+00
ITEM: ATOMS id element x y z vx vy vz fx fy fz
1 Si 1.95193 1.1372 0.811376 -3.59633 -2.07629 -1.46818 -0.590146 -0.340715 -0.240924
2 Si 0.017082 0.0201181 0.0214773 3.59633 2.07629 1.46818 0.590146 0.340715 0.240924
ITEM: TIMESTEP
4300
ITEM: NUMBER OF ATOMS
2
ITEM: BOX BOUNDS xy xz yz pp pp pp
5.1270198917796550e-02 7.5801384297635286e+00 1.8822168143406757e+00
4.4401286953087669e-02 4.3911948639171516e+00 1.8822168143406757e+00
4.1861943896080799e-02 3.1155100561039490e+00 1.0866981508702511e+00
ITEM: ATOMS id element x y z vx vy vz fx fy fz
1 Si 1.95544 1.14377 0.819236 4.23281 2.44376 1.72802 -0.735065 -0.424383 -0.300086
2 Si 0.0293165 0.0317266 0.0328995 -4.23281 -2.44376 -1.72802 0.735065 0.424383 0.300086
ITEM: TIMESTEP
4400
ITEM: NUMBER OF ATOMS
2
ITEM: BOX BOUNDS xy xz yz pp pp pp
1.8691956467465683e-02 7.6778731402650466e+00 1.9147950483662697e+00
1.6187706315657750e-02 4.4382174926963804e+00 1.9147950483662697e+00
1.5261919194114765e-02 3.1421100808059155e+00 1.1055071990120484e+00
ITEM: ATOMS id element x y z vx vy vz fx fy fz
1 Si 1.89207 1.09778 0.780064 -4.33489 -2.50273 -1.7697 1.55845 0.899753 0.636229
2 Si 0.0601135 0.0401017 0.0321719 4.33489 2.50273 1.7697 -1.55845 -0.899753 -0.636229
ITEM: TIMESTEP
4500
ITEM: NUMBER OF ATOMS
2
ITEM: BOX BOUNDS xy xz yz pp pp pp
-1.5724630942882633e-02 7.7811228846958249e+00 1.9492116268764841e+00
-1.3617927479580526e-02 4.4878935430883500e+00 1.9492116268764841e+00
-1.2839107945956820e-02 3.1702111079459900e+00 1.1253776156087840e+00
ITEM: ATOMS id element x y z vx vy vz fx fy fz
1 Si 2.00271 1.15172 0.811181 2.00137 1.15551 0.817062 -1.26732 -0.731664 -0.517373
2 Si -0.084943 -0.0535804 -0.0410971 -2.00137 -1.15551 -0.817062 1.26732 0.731664 0.517373
ITEM: TIMESTEP
4600
ITEM: NUMBER OF ATOMS
2
ITEM: BOX BOUNDS xy xz yz pp pp pp
-1.4350219242056319e-02 7.7769996503041918e+00 1.9478372155310799e+00
-1.2427652239612664e-02 4.4859097512586832e+00 1.9478372155310799e+00
-1.1716905443830701e-02 3.1690889054438633e+00 1.1245840990190872e+00
ITEM: ATOMS id element x y z vx vy vz fx fy fz
1 Si 1.89609 1.09056 0.768215 0.31512 0.181893 0.128633 1.20596 0.696256 0.492328
2 Si 0.0230513 0.00916605 0.00355215 -0.31512 -0.181893 -0.128633 -1.20596 -0.696256 -0.492328
ITEM: TIMESTEP
4700
ITEM: NUMBER OF ATOMS
2
ITEM: BOX BOUNDS xy xz yz pp pp pp
-4.3988560049040455e-03 7.7471455657395865e+00 1.9378858548673532e+00
-3.8095203814633772e-03 4.4715461998773822e+00 1.9378858548673532e+00
-3.5916510403749841e-03 3.1609636510404062e+00 1.1188386794959353e+00
ITEM: ATOMS id element x y z vx vy vz fx fy fz
1 Si 1.95613 1.1281 0.79679 -2.37355 -1.37034 -0.968989 -0.600121 -0.346489 -0.245001
2 Si -0.0270377 -0.0168803 -0.012834 2.37355 1.37034 0.968989 0.600121 0.346489 0.245001
ITEM: TIMESTEP
4800
ITEM: NUMBER OF ATOMS
2
ITEM: BOX BOUNDS xy xz yz pp pp pp
5.5928972904272364e-03 7.7171703110213343e+00 1.9278941041558917e+00
4.8435902870129282e-03 4.4571243504858353e+00 1.9278941041558917e+00
4.5665817088899980e-03 3.1528054182911456e+00 1.1130699407728639e+00
ITEM: ATOMS id element x y z vx vy vz fx fy fz
1 Si 1.94255 1.12315 0.795328 3.3278 1.92132 1.35857 -0.268818 -0.155188 -0.10974
2 Si -0.00347422 -0.000390832 0.000865098 -3.3278 -1.92132 -1.35857 0.268818 0.155188 0.10974
ITEM: TIMESTEP
4900
ITEM: NUMBER OF ATOMS
2
ITEM: BOX BOUNDS xy xz yz pp pp pp
1.3084545019691179e-02 7.6946953717082209e+00 1.9204024583639672e+00
1.1331546401867388e-02 4.4463110915859732e+00 1.9204024583639672e+00
1.0683486724889613e-02 3.1466885132751470e+00 1.1087446379878534e+00
ITEM: ATOMS id element x y z vx vy vz fx fy fz
1 Si 1.89988 1.10067 0.780966 -3.07598 -1.77598 -1.25579 1.20825 0.697576 0.493262
2 Si 0.0466892 0.0307331 0.0244025 3.07598 1.77598 1.25579 -1.20825 -0.697576 -0.493262
ITEM: TIMESTEP
5000
ITEM: NUMBER OF ATOMS
2
ITEM: BOX BOUNDS xy xz yz pp pp pp
2.3410989517236313e-02 7.6637160435564127e+00 1.9100760165368385e+00
2.0274508103182657e-02 4.4314061571973955e+00 1.9100760165368385e+00
1.9114993708025881e-02 3.1382570062920139e+00 1.1027826653005899e+00
ITEM: ATOMS id element x y z vx vy vz fx fy fz
1 Si 2.00892 1.16661 0.829698 1.4548 0.840041 0.593956 -1.55265 -0.896448 -0.633875
2 Si -0.052026 -0.0232796 -0.0116822 -1.4548 -0.840041 -0.593956 1.55265 0.896448 0.633875
ITEM: TIMESTEP
5100
ITEM: NUMBER OF ATOMS
2
ITEM: BOX BOUNDS xy xz yz pp pp pp
3.6462443441396368e-02 7.6245616885341470e+00 1.8970245659877858e+00
3.1577396780692338e-02 4.4125680116516204e+00 1.8970245659877858e+00
2.9771461665389715e-02 3.1276005383346446e+00 1.0952474084323227e+00
ITEM: ATOMS id element x y z vx vy vz fx fy fz
1 Si 1.88399 1.09825 0.784021 -0.210759 -0.12172 -0.0860556 2.05284 1.18523 0.838077
2 Si 0.0859609 0.0601565 0.0499795 0.210759 0.12172 0.0860556 -2.05284 -1.18523 -0.838077
ITEM: TIMESTEP
5200
ITEM: NUMBER OF ATOMS
2
ITEM: BOX BOUNDS xy xz yz pp pp pp
2.5076958365982935e-02 7.6587181378718157e+00 1.9084100481189121e+00
2.1717279195735777e-02 4.4290015389970154e+00 1.9084100481189121e+00
2.0475251634674230e-02 3.1368967483653623e+00 1.1018208181927662e+00
ITEM: ATOMS id element x y z vx vy vz fx fy fz
1 Si 1.97047 1.14489 0.814677 -2.20579 -1.27355 -0.900523 -1.01709 -0.587249 -0.415236
2 Si -0.0119018 0.000366785 0.00537846 2.20579 1.27355 0.900523 1.01709 0.587249 0.415236
ITEM: TIMESTEP
5300
ITEM: NUMBER OF ATOMS
2
ITEM: BOX BOUNDS xy xz yz pp pp pp
4.8497771752646262e-03 7.7193996709824653e+00 1.9286372240788805e+00
4.2000295017942790e-03 4.4581969516664186e+00 1.9286372240788805e+00
3.9598266498990708e-03 3.1534121733501359e+00 1.1134989811682268e+00
ITEM: ATOMS id element x y z vx vy vz fx fy fz
1 Si 1.93174 1.11669 0.79061 4.05024 2.3385 1.65354 0.0541889 0.0313025 0.0221281
2 Si 0.0065954 0.00520846 0.00467267 -4.05024 -2.3385 -1.65354 -0.0541889 -0.0313025 -0.0221281
ITEM: TIMESTEP
5400
ITEM: NUMBER OF ATOMS
2
ITEM: BOX BOUNDS xy xz yz pp pp pp
2.6583174658884085e-03 7.7259740489771689e+00 1.9308286832215424e+00
2.3021700540836166e-03 4.4613600503681319e+00 1.9308286832215424e+00
2.1705072140324405e-03 3.1552014927860035e+00 1.1147642204222277e+00
ITEM: ATOMS id element x y z vx vy vz fx fy fz
1 Si 1.91451 1.10611 0.782682 -3.42021 -1.97476 -1.39633 0.623328 0.359893 0.254477
2 Si 0.0216333 0.0132579 0.00991718 3.42021 1.97476 1.39633 -0.623328 -0.359893 -0.254477
ITEM: TIMESTEP
5500
ITEM: NUMBER OF ATOMS
2
ITEM: BOX BOUNDS xy xz yz pp pp pp
-3.2026964366628891e-03 7.7435570876535014e+00 1.9366896956084341e+00
-2.7736159895875301e-03 4.4698196927638127e+00 1.9366896956084341e+00
-2.6149908012182725e-03 3.1599869908012526e+00 1.1181480767742360e+00
ITEM: ATOMS id element x y z vx vy vz fx fy fz
1 Si 1.97581 1.13981 0.805315 0.638139 0.368473 0.260534 -0.999314 -0.576989 -0.40798
2 Si -0.0455282 -0.0272112 -0.0198946 -0.638139 -0.368473 -0.260534 0.999314 0.576989 0.40798
ITEM: TIMESTEP
5600
ITEM: NUMBER OF ATOMS
2
ITEM: BOX BOUNDS xy xz yz pp pp pp
-9.2197102292097509e-03 7.7616081259191452e+00 1.9427067078449811e+00
-7.9845018773509573e-03 4.4785045015394216e+00 1.9427067078449811e+00
-7.5278621986800227e-03 3.1648998621987143e+00 1.1216219996620789e+00
ITEM: ATOMS id element x y z vx vy vz fx fy fz
1 Si 1.89771 1.09298 0.770971 2.72694 1.57445 1.11329 1.17496 0.678398 0.479688
2 Si 0.0265611 0.012675 0.00708007 -2.72694 -1.57445 -1.11329 -1.17496 -0.678398 -0.479688
ITEM: TIMESTEP
5700
ITEM: NUMBER OF ATOMS
2
ITEM: BOX BOUNDS xy xz yz pp pp pp
-1.1118600713920465e-02 7.7673047963911728e+00 1.9446055978386387e+00
-9.6289889884559818e-03 4.4812453130638925e+00 1.9446055978386387e+00
-9.0782998527862355e-03 3.1664502998528206e+00 1.1227183240754459e+00
ITEM: ATOMS id element x y z vx vy vz fx fy fz
1 Si 1.9686 1.13336 0.799139 -4.53728 -2.61978 -1.8524 -0.840488 -0.485269 -0.343133
2 Si -0.046233 -0.0299027 -0.0234138 4.53728 2.61978 1.8524 0.840488 0.485269 0.343133
ITEM: TIMESTEP
5800
ITEM: NUMBER OF ATOMS
2
ITEM: BOX BOUNDS xy xz yz pp pp pp
2.1775796936922123e-02 7.6686216204516295e+00 1.9117112086942891e+00
1.8858390036262881e-02 4.4337663536936862e+00 1.9117112086942891e+00
1.7779864500393098e-02 3.1395921354996417e+00 1.1037267437299620e+00
ITEM: ATOMS id element x y z vx vy vz fx fy fz
1 Si 1.93793 1.12515 0.800047 5.22892 3.01908 2.13475 -0.143977 -0.0831334 -0.0587811