ITEM: TIMESTEP
0
ITEM: NUMBER OF ATOMS
250
ITEM: BOX BOUNDS xy xz yz pp pp pp
0.0000000000000000e+00 3.8669747000000001e+01 9.6674369999999996e+00
0.0000000000000000e+00 2.2325987999999999e+01 9.6674369999999996e+00
0.0000000000000000e+00 1.5786858000000001e+01 5.5814969999999997e+00
ITEM: ATOMS id element x y z vx vy vz fx fy fz
1 Si 1.93349 1.1163 0.789343 -2.60895 2.80837 -3.02238 6.57592e-06 1.89829e-06 3.09746e-06
2 Si 3.86698 2.2326 3.94671 -1.2948 0.181392 1.77712 -6.66747e-06 -3.06691e-06 4.40731e-06
3 Si 5.80046 3.3489 7.10409 -4.69532 0.751742 0.0883233 4.49349e-08 5.65274e-06 5.37271e-06
4 Si 7.73395 4.4652 10.2615 3.06842 -2.2801 -2.05757 6.47174e-06 -3.12802e-06 -1.02237e-05
5 Si 9.66744 5.5815 13.4188 -1.22435 -2.86396 3.86109 -6.57592e-06 2.31658e-06 2.19631e-06
6 Si 3.86697 4.4652 0.789343 0.368517 -0.75086 1.02244 -6.66746e-06 -2.9185e-06 -1.98704e-07
7 Si 5.80046 5.5815 3.94671 -3.09073 0.507867 0.117202 -5.92265e-08 6.02711e-06 9.92428e-06
8 Si 7.73395 6.6978 7.10409 3.52073 -7.42234 -3.86303 6.36758e-06 -1.17569e-05 2.38498e-06
9 Si 9.66744 7.8141 10.2615 4.68346 1.28555 -4.11192 -6.57592e-06 2.48598e-06 -6.99087e-06
10 Si 11.6009 8.9304 13.4188 3.93938 -4.03867 -1.95026 -1.63388e-07 5.7657e-06 4.96535e-06
11 Si 5.80046 7.8141 0.789343 3.81907 -3.83641 -0.997276 4.49349e-08 6.08747e-06 5.28941e-06
12 Si 7.73395 8.9304 3.94671 -0.369041 -3.41236 0.711878 6.36761e-06 2.10314e-06 7.52039e-06
13 Si 9.66744 10.0467 7.10409 -5.62868 -1.3963 0.43802 -6.57591e-06 -3.06691e-06 -4.30148e-07
14 Si 11.6009 11.163 10.2615 1.16741 5.3483 -1.40875 -5.92263e-08 5.87869e-06 -4.29725e-06
15 Si 13.5344 12.2793 13.4188 0.932383 -3.81247 -2.39314 7.05844e-06 -2.92317e-06 -1.00278e-06
16 Si 7.73395 11.163 0.789343 4.76277 4.93637 -0.726461 -3.7171e-07 5.70448e-06 5.67287e-06
17 Si 9.66744 12.2793 3.94671 1.4051 -1.20241 -3.51243 -6.57592e-06 -2.9185e-06 4.29581e-06
18 Si 11.6009 13.3956 7.10409 4.6118 0.327505 -4.57691 -5.92264e-08 6.0271e-06 5.08682e-06
19 Si 13.5344 14.5119 10.2615 -2.5873 0.330922 -1.99185 6.36758e-06 -1.17569e-05 -7.18556e-06
20 Si 15.4679 15.6282 13.4188 2.92732 1.99267 0.944734 -6.57592e-06 2.48598e-06 2.23673e-06
21 Si 9.66744 14.5119 0.789343 -7.34411 -3.86666 0.21998 -6.57591e-06 -1.14908e-05 2.62465e-06
22 Si 11.6009 15.6282 3.94671 2.4134 1.39268 1.28361 -1.63388e-07 -2.75095e-06 1.27755e-05
23 Si 13.5344 16.7445 7.10409 1.23847 5.00669 0.658492 7.05846e-06 2.25622e-06 2.61467e-06
24 Si 15.4679 17.8608 10.2615 4.01535 -2.91325 -3.59396 -6.57591e-06 -1.17877e-05 -6.99087e-06
25 Si 17.4014 18.9771 13.4188 -1.24924 -5.30756 5.8501 -2.67549e-07 5.90944e-06 4.66068e-06
26 Si 5.80046 1.1163 0.789343 2.53132 0.156012 -1.77433 2.08323e-07 5.64793e-06 5.74886e-06
27 Si 7.73395 2.2326 3.94671 -0.573811 0.125861 -2.19559 6.47176e-06 -3.12802e-06 4.18426e-06
28 Si 9.66744 3.3489 7.10409 4.79747 2.28018 0.017814 -6.45915e-06 2.10314e-06 2.68294e-06
29 Si 11.6009 4.4652 10.2615 -0.222345 -2.85375 -1.85686 1.04161e-07 3.95629e-07 -7.37247e-06
30 Si 13.5344 5.5815 13.4188 -4.3801 -1.88311 -3.70328 7.17523e-06 2.25548e-06 1.97327e-06
31 Si 7.73395 4.4652 0.789343 0.981878 0.695861 0.306482 6.47174e-06 -3.14916e-06 -1.8197e-07
32 Si 9.66744 5.5815 3.94671 -0.992493 0.606315 4.17785 -6.36761e-06 2.42095e-06 7.37434e-06
33 Si 11.6009 6.6978 7.10409 -0.553499 -2.68886 0.903658 1.11675e-13 -8.12016e-06 4.95655e-06
34 Si 13.5344 7.8141 10.2615 -0.466596 -1.91149 -0.346482 6.3676e-06 2.36832e-06 -7.07407e-06
35 Si 15.4679 8.9304 13.4188 -4.56038 3.13938 -1.79917 -6.47176e-06 2.38554e-06 2.34541e-06
36 Si 9.66744 7.8141 0.789343 -4.21491 3.09366 -4.20998 -7.16262e-06 2.36832e-06 2.8394e-06
37 Si 11.6009 8.9304 3.94671 -1.8643 -2.43032 0.817003 -3.26544e-14 5.73991e-06 1.0092e-05
38 Si 13.5344 10.0467 7.10409 6.41072 -0.968859 1.12016 6.36758e-06 -3.18457e-06 -5.13347e-07
39 Si 15.4679 11.163 10.2615 -3.33182 -1.64378 -2.38225 -6.3676e-06 2.27254e-06 -6.84719e-06
40 Si 17.4014 12.2793 13.4188 -1.15982 1.67533 7.65794 -1.04161e-07 4.87595e-07 1.63879e-06
41 Si 11.6009 11.163 0.789343 -6.80302 -0.268043 -2.11963 -6.73931e-06 2.47736e-06 3.03129e-06
42 Si 13.5344 12.2793 3.94671 -4.49452 -4.10991 -5.40913 6.36759e-06 -3.03617e-06 4.21261e-06
43 Si 15.4679 13.3956 7.10409 -3.16323 -3.75459 1.11639 -6.3676e-06 2.42095e-06 2.53688e-06
44 Si 17.4014 14.5119 10.2615 -1.34934 -0.12741 0.0637457 1.88322e-14 -8.12016e-06 -4.61399e-06
45 Si 19.3349 15.6282 13.4188 1.87274 -6.02556 0.945654 6.45915e-06 2.36832e-06 2.15353e-06
46 Si 13.5344 14.5119 0.789343 -0.825961 -1.60661 2.36344 7.17521e-06 -1.17215e-05 2.64138e-06
47 Si 15.4679 15.6282 3.94671 -4.17247 0.413337 0.87004 -6.47177e-06 -6.34777e-06 1.04619e-05
48 Si 17.4014 16.7445 7.10409 0.886504 4.60671 3.35167 -1.04161e-07 5.88364e-06 4.94984e-06
49 Si 19.3349 17.8608 10.2615 -1.00349 -0.0996628 -3.69842 7.1626e-06 -1.19053e-05 -7.07406e-06
50 Si 21.2684 18.9771 13.4188 0.80673 -3.38072 0.0978391 -6.57592e-06 2.53861e-06 2.27714e-06
51 Si 9.66744 1.1163 0.789343 -1.90649 2.54423 -1.66612 -6.5507e-06 1.95473e-06 3.13737e-06
52 Si 11.6009 2.2326 3.94671 -3.18867 -1.33984 4.69667 1.04161e-07 3.95631e-07 7.03552e-06
53 Si 13.5344 3.3489 7.10409 0.515397 1.81967 6.32223 6.47176e-06 2.15969e-06 2.54309e-06
54 Si 15.4679 4.4652 10.2615 -1.81503 0.165255 2.23903 -6.45914e-06 -3.18457e-06 -1.00839e-05
55 Si 17.4014 5.5815 13.4188 -2.05578 -0.0562323 -1.8171 -5.70655e-14 5.66613e-06 4.85954e-06
56 Si 11.6009 4.4652 0.789343 1.34907 5.97159 4.07417 1.04161e-07 7.13585e-07 2.18974e-06
57 Si 13.5344 5.5815 3.94671 -3.23964 -4.45984 2.0031 6.36761e-06 2.42095e-06 7.37434e-06
58 Si 15.4679 6.6978 7.10409 -1.40539 6.65585 -0.68406 -6.36758e-06 -1.17569e-05 2.38498e-06
59 Si 17.4014 7.8141 10.2615 -1.73364 0.264942 4.36016 -7.40658e-14 6.00508e-06 -4.50249e-06
60 Si 19.3349 8.9304 13.4188 3.63621 1.31417 -1.28369 7.16262e-06 2.27254e-06 2.38042e-06
61 Si 13.5344 7.8141 0.789343 4.9376 -0.550084 0.309633 -3.7171e-07 5.80026e-06 5.44598e-06
62 Si 15.4679 8.9304 3.94671 1.65938 0.637048 -0.997257 -6.36761e-06 2.10314e-06 7.52039e-06
63 Si 17.4014 10.0467 7.10409 0.0960852 -6.81488 -3.9224 1.76525e-14 4.52181e-07 2.05822e-06
64 Si 19.3349 11.163 10.2615 -4.17828 0.857535 0.631566 6.3676e-06 2.27254e-06 -6.84719e-06
65 Si 21.2684 12.2793 13.4188 0.698676 2.70553 2.0052 -6.47174e-06 -2.92317e-06 -1.00278e-06
66 Si 15.4679 11.163 0.789343 -4.28498 0.231315 -1.09447 -6.45915e-06 2.27254e-06 3.06629e-06
67 Si 17.4014 12.2793 3.94671 2.61762 1.22472 2.41344 -1.82077e-14 6.00593e-07 6.78419e-06
68 Si 19.3349 13.3956 7.10409 -0.842971 0.117087 1.61614 6.3676e-06 2.42095e-06 2.53688e-06
69 Si 21.2684 14.5119 10.2615 3.22191 0.115745 8.2407 -6.36758e-06 -1.17569e-05 -7.18556e-06
70 Si 23.2018 15.6282 13.4188 -2.95498 3.38855 -6.75079 -1.04161e-07 5.89208e-06 4.76011e-06
71 Si 17.4014 14.5119 0.789343 2.56534 5.58607 -2.67264 -6.98469e-14 -7.86342e-06 4.89489e-06
72 Si 19.3349 15.6282 3.94671 0.917532 2.26309 1.81825 7.16262e-06 -6.35244e-06 1.03437e-05
73 Si 21.2684 16.7445 7.10409 -0.0815226 1.60489 -0.337259 -6.47176e-06 2.25622e-06 2.61467e-06
74 Si 23.2018 17.8608 10.2615 -2.30332 -4.70863 -2.85501 -1.04161e-07 -8.27323e-06 -4.62069e-06
75 Si 25.1353 18.9771 13.4188 -4.03948 -2.56933 1.89631 7.95764e-06 2.42095e-06 2.19395e-06
76 Si 13.5344 1.1163 0.789343 0.655853 2.22251 1.44791 6.57592e-06 1.89829e-06 3.09746e-06
77 Si 15.4679 2.2326 3.94671 -0.0903841 -3.17921 -0.33059 -6.45915e-06 -3.18457e-06 4.32411e-06
78 Si 17.4014 3.3489 7.10409 -0.578705 -1.05395 -4.5949 1.04161e-07 5.68335e-06 5.39436e-06
79 Si 19.3349 4.4652 10.2615 3.08031 3.08227 -1.30229 6.47174e-06 -3.12802e-06 -1.02237e-05
80 Si 21.2684 5.5815 13.4188 -4.04794 1.80061 3.5505 -6.47176e-06 2.31192e-06 2.07811e-06
81 Si 15.4679 4.4652 0.789343 4.21331 0.221427 -1.6967 -7.1626e-06 -3.03616e-06 -2.81903e-07
82 Si 17.4014 5.5815 3.94671 2.50317 2.17356 -3.35491 1.81799e-15 6.05772e-06 9.94592e-06
83 Si 19.3349 6.6978 7.10409 -1.54387 -3.65336 1.87219 6.36758e-06 -1.17569e-05 2.38498e-06
84 Si 21.2684 7.8141 10.2615 -3.66262 1.02592 -2.86668 -6.3676e-06 2.36832e-06 -7.07407e-06
85 Si 23.2018 8.9304 13.4188 -2.26619 -0.67722 -6.95247 -1.04161e-07 5.7963e-06 4.98699e-06
86 Si 17.4014 7.8141 0.789343 2.07391 2.28381 -0.433058 -6.73931e-06 2.57314e-06 2.8044e-06
87 Si 19.3349 8.9304 3.94671 2.7144 -2.86006 0.255313 6.36761e-06 2.10314e-06 7.52039e-06
88 Si 21.2684 10.0467 7.10409 3.73576 -2.52643 -0.952388 -6.36758e-06 -3.18457e-06 -5.13347e-07
89 Si 23.2018 11.163 10.2615 -0.774182 -2.912 -3.09403 7.1318e-14 5.9093e-06 -4.27561e-06
90 Si 25.1353 12.2793 13.4188 2.1983 0.579356 -0.864366 6.45914e-06 -3.03616e-06 -9.67779e-07
91 Si 19.3349 11.163 0.789343 -1.05218 0.992809 0.437886 6.47176e-06 2.15955e-06 3.16622e-06
92 Si 21.2684 12.2793 3.94671 3.18146 4.99312 0.0795989 -6.36759e-06 -3.03617e-06 4.21261e-06
93 Si 23.2018 13.3956 7.10409 -2.59456 3.2835 5.98615 1.03972e-13 6.05771e-06 5.10846e-06
94 Si 25.1353 14.5119 10.2615 1.31848 -1.05625 -4.11903 6.36758e-06 -1.17569e-05 -7.18556e-06
95 Si 27.0688 15.6282 13.4188 5.54755 4.66562 2.49019 -6.47176e-06 2.48132e-06 2.11853e-06
96 Si 21.2684 14.5119 0.789343 -3.51787 -0.182095 -6.43795 -6.47174e-06 -1.16038e-05 2.65965e-06
97 Si 23.2018 15.6282 3.94671 -6.26071 0.576456 2.65036 -1.04161e-07 -2.72034e-06 1.27971e-05
98 Si 25.1353 16.7445 7.10409 2.26337 -0.158573 2.89275 7.16262e-06 2.25155e-06 2.49647e-06
99 Si 27.0688 17.8608 10.2615 -5.17066 -1.62946 -0.736888 -6.47174e-06 -1.19007e-05 -6.95586e-06
100 Si 29.0023 18.9771 13.4188 -3.01756 1.58407 3.01978 -2.08322e-07 5.94005e-06 4.68232e-06
101 Si 17.4014 1.1163 0.789343 -0.530815 0.355381 0.205586 2.67549e-07 5.61733e-06 5.72721e-06
102 Si 19.3349 2.2326 3.94671 2.23763 2.18249 -2.39814 -2.67549e-07 3.03913e-07 6.79084e-06
103 Si 21.2684 3.3489 7.10409 -2.10055 -5.78447 1.32928 -6.35499e-06 2.15969e-06 2.54309e-06
104 Si 23.2018 4.4652 10.2615 -0.272217 2.70979 2.9743 1.63387e-07 3.6502e-07 -7.39412e-06
105 Si 25.1353 5.5815 13.4188 -2.1349 3.94639 6.75831 4.35918e-07 5.68741e-06 4.57985e-06
106 Si 19.3349 4.4652 0.789343 -3.72889 -3.19511 1.7616 -2.67549e-07 4.5232e-07 2.18482e-06
107 Si 21.2684 5.5815 3.94671 2.56228 3.9551 -1.5398 -6.36761e-06 2.42095e-06 7.37434e-06
108 Si 23.2018 6.6978 7.10409 -1.15945 -1.12165 3.04314 5.92262e-08 -8.15077e-06 4.93491e-06
109 Si 25.1353 7.8141 10.2615 -0.576747 2.77925 -3.76123 -2.67549e-07 5.85681e-06 -4.60734e-06
110 Si 27.0688 8.9304 13.4188 -2.15351 4.64272 0.676112 -6.47176e-06 2.38554e-06 2.34541e-06
111 Si 21.2684 7.8141 0.789343 1.16377 1.42633 -1.83182 -6.35499e-06 2.25533e-06 2.93934e-06
112 Si 23.2018 8.9304 3.94671 -0.448326 -1.44331 -3.27543 5.92267e-08 5.7093e-06 1.00703e-05
113 Si 25.1353 10.0467 7.10409 3.26301 2.2544 3.64898 -2.67548e-07 3.0391e-07 1.95338e-06
114 Si 27.0688 11.163 10.2615 2.03139 2.53252 -4.48828 -6.3676e-06 2.27254e-06 -6.84719e-06
115 Si 29.0023 12.2793 13.4188 -4.39854 -3.33867 0.339538 -4.49351e-08 4.56986e-07 1.61715e-06
116 Si 23.2018 11.163 0.789343 2.80354 -2.24253 -3.54741 1.63388e-07 5.99169e-06 5.51629e-06
117 Si 25.1353 12.2793 3.94671 -1.72139 -6.77496 1.22162 -2.67549e-07 4.52323e-07 6.67934e-06
118 Si 27.0688 13.3956 7.10409 -1.09118 -2.02453 3.00006 -6.3676e-06 2.42095e-06 2.53688e-06
119 Si 29.0023 14.5119 10.2615 -1.84461 -2.18022 2.03315 5.9226e-08 -8.15077e-06 -4.63563e-06
120 Si 30.9358 15.6282 13.4188 0.961256 -3.47681 -6.78839 5.27471e-07 5.85681e-06 4.62027e-06
121 Si 25.1353 14.5119 0.789343 0.502207 3.70543 5.37465 4.35915e-07 -8.12002e-06 5.00818e-06
122 Si 27.0688 15.6282 3.94671 7.60966 -3.05085 -0.258025 -6.47177e-06 -6.34777e-06 1.04619e-05
123 Si 29.0023 16.7445 7.10409 2.33453 2.33224 -5.70866 -4.49348e-08 5.85303e-06 4.9282e-06
124 Si 30.9358 17.8608 10.2615 0.713333 4.12514 0.428398 5.27466e-07 -8.41683e-06 -4.60734e-06
125 Si 32.8693 18.9771 13.4188 1.65506 -1.87798 -0.136219 -6.57592e-06 2.53861e-06 2.27714e-06
126 Si 0 0 0 0.347851 -1.74665 -3.67509 1.49096e-07 2.86394e-06 -7.97302e-06
127 Si 30.9358 17.8608 3.15737 -0.596092 -0.52904 3.70603 6.47176e-06 1.16039e-05 -7.15417e-06
128 Si 3.86698 2.2326 6.31474 -0.0606985 -1.25152 1.42033 -5.27471e-07 -5.90944e-06 -5.34655e-06
129 Si 34.8028 20.0934 9.47212 1.02006 -0.447458 -1.538 4.49354e-08 8.15543e-06 -4.47377e-06
130 Si 27.0688 4.4652 12.6295 -3.5413 -2.22176 3.60469 6.3676e-06 -2.31262e-06 6.81552e-06
131 Si 21.2684 3.3489 0 0.108116 -4.4465 -0.383106 6.47174e-06 2.92317e-06 6.59842e-07
132 Si 23.2018 4.4652 3.15737 -1.7732 0.1413 0.744252 2.67549e-07 -5.76104e-06 -1.00275e-05
133 Si 25.1353 5.5815 6.31474 1.92404 -3.57559 0.864068 -5.92262e-08 -4.21572e-07 -2.37952e-06
134 Si 27.0688 6.6978 9.47212 4.69508 -3.25745 3.65993 6.3676e-06 -2.10314e-06 -2.34e-06
135 Si 9.66744 7.8141 12.6295 -3.21868 5.31672 0.976231 2.67549e-07 -5.85681e-06 4.60734e-06
136 Si 23.2018 6.6978 0 2.50018 4.06515 -0.193993 -5.2747e-07 -5.76103e-06 -5.19009e-06
137 Si 25.1353 7.8141 3.15737 1.38969 -0.0298589 2.9742 -5.92267e-08 -5.97448e-06 -9.88386e-06
138 Si 27.0688 8.9304 6.31474 -2.79725 1.84433 -0.753723 6.36758e-06 1.17569e-05 -2.72792e-06
139 Si 29.0023 10.0467 9.47212 -1.56641 -0.576755 4.51024 2.67549e-07 -5.90944e-06 -4.66068e-06
140 Si 30.9358 11.163 12.6295 -1.45325 -0.4825 1.74646 -1.63387e-07 -6.82976e-07 7.74539e-06
141 Si 34.8028 15.6282 15.7869 -0.844321 1.98897 4.25173 1.04161e-07 -5.83087e-06 -5.05976e-06
142 Si 27.0688 11.163 3.15737 0.666271 4.78252 -1.02882 6.47176e-06 2.92317e-06 -4.17761e-06
143 Si 29.0023 12.2793 6.31474 -1.3447 0.495456 3.5686 2.67549e-07 -5.76103e-06 -5.53302e-06
144 Si 30.9358 13.3956 9.47212 1.67052 -2.41811 2.42089 -5.92261e-08 -4.21572e-07 -1.69364e-06
145 Si 32.8693 14.5119 12.6295 -3.2328 1.61717 -1.10363 6.35499e-06 -1.99015e-06 6.78767e-06
146 Si 27.0688 13.3956 0 6.22754 5.70461 1.08704 6.47174e-06 3.01036e-06 5.69992e-07
147 Si 29.0023 14.5119 3.15737 0.903382 -1.3944 -1.1312 2.67549e-07 -5.44323e-06 -1.00986e-05
148 Si 30.9358 15.6282 6.31474 4.64608 -0.633498 -5.97716 -1.63388e-07 -5.74852e-06 -5.48877e-06
149 Si 32.8693 16.7445 9.47212 2.03904 2.49404 3.40768 6.35497e-06 1.18488e-05 -2.01369e-06
150 Si 34.8028 17.8608 12.6295 1.36117 -0.719225 -2.73944 2.67549e-07 -5.74004e-06 4.60734e-06
151 Si 3.86698 0 0 -3.69737 -2.5121 -3.68065 -7.95763e-06 6.35242e-06 -5.50629e-06
152 Si 15.4679 17.8608 3.15737 -0.776769 -2.12455 1.33432 1.04161e-07 7.97643e-06 -9.48934e-06
153 Si 7.73395 2.2326 6.31474 5.77754 -0.116947 -0.625484 6.47176e-06 -2.42562e-06 -2.99802e-06
154 Si 19.3349 20.0934 9.47212 1.32331 -2.22982 -0.252612 -7.1626e-06 1.17569e-05 -2.04204e-06
155 Si 11.6009 4.4652 12.6295 -2.10909 1.48504 -0.514847 -3.23455e-14 -6.16604e-06 4.68021e-06
156 Si 5.80046 3.3489 0 -1.32508 1.4997 -0.460155 1.04161e-07 -4.87595e-07 -1.98173e-06
157 Si 7.73395 4.4652 3.15737 -4.73991 -2.29001 -1.0157 6.36761e-06 -2.27254e-06 -7.56081e-06
158 Si 9.66744 5.5815 6.31474 4.24339 -2.58369 1.33681 -6.36758e-06 3.18457e-06 1.7041e-07
159 Si 11.6009 6.6978 9.47212 0.537418 0.412377 6.79315 4.35207e-14 -5.7399e-06 -4.91158e-06
160 Si 13.5344 7.8141 12.6295 -1.31684 4.89866 -1.31515 6.45915e-06 -2.36832e-06 7.07407e-06
161 Si 7.73395 6.6978 0 -0.650309 -3.72471 2.99281 6.57592e-06 -2.44209e-06 -2.54851e-06
162 Si 9.66744 7.8141 3.15737 5.01595 -1.82235 -4.35889 -6.45916e-06 -2.36832e-06 -7.33392e-06
163 Si 11.6009 8.9304 6.31474 -0.448784 0.452445 3.98376 6.21725e-15 8.12016e-06 -5.29949e-06
164 Si 13.5344 10.0467 9.47212 0.380553 1.2247 5.91615 6.3676e-06 -2.42095e-06 -2.19394e-06
165 Si 15.4679 11.163 12.6295 1.11306 1.43583 -4.10376 -6.47174e-06 3.14916e-06 1.00954e-05
166 Si 19.3349 15.6282 15.7869 -0.485606 3.89956 1.18249 7.16262e-06 -2.36832e-06 -2.49647e-06
167 Si 11.6009 11.163 3.15737 4.54482 1.98612 4.94608 1.04161e-07 -4.87598e-07 -6.81919e-06
168 Si 13.5344 12.2793 6.31474 -2.93966 4.57463 -0.935224 6.3676e-06 -2.27254e-06 -3.06629e-06
169 Si 15.4679 13.3956 9.47212 3.60314 -2.62664 -1.85071 -6.36758e-06 3.18457e-06 8.56285e-07
170 Si 17.4014 14.5119 12.6295 5.92154 3.19737 1.283 2.73809e-14 -5.7399e-06 4.31602e-06
171 Si 11.6009 13.3956 0 3.38459 0.908467 0.997653 1.04161e-07 -2.77968e-07 -2.11487e-06
172 Si 13.5344 14.5119 3.15737 4.85796 7.13107 -1.74852 6.45916e-06 -1.95474e-06 -7.63189e-06
173 Si 15.4679 15.6282 6.31474 -1.35363 5.22289 -0.20226 -6.47176e-06 -2.25547e-06 -2.65915e-06
174 Si 17.4014 16.7445 9.47212 -0.448986 -2.41242 1.32562 -1.04161e-07 8.32512e-06 -4.86495e-06
175 Si 19.3349 17.8608 12.6295 3.63395 3.33601 10.0328 6.45915e-06 -2.25155e-06 7.07407e-06
176 Si 7.73395 0 0 -1.41153 -1.24864 5.20732 6.57592e-06 6.23476e-06 -5.58949e-06
177 Si 19.3349 17.8608 3.15737 -1.47697 0.658809 0.789692 -7.16261e-06 1.16085e-05 -7.03597e-06
178 Si 11.6009 2.2326 6.31474 0.3279 -2.7051 3.78983 1.04161e-07 -6.05304e-06 -5.3332e-06
179 Si 23.2018 20.0934 9.47212 0.0538378 0.985123 0.46392 6.47174e-06 1.17522e-05 -2.16024e-06
180 Si 15.4679 4.4652 12.6295 -3.49619 0.417556 0.248042 -7.17523e-06 -2.30796e-06 6.93372e-06
181 Si 9.66744 3.3489 0 -3.34 3.53463 0.567185 -7.1626e-06 3.03616e-06 6.24839e-07
182 Si 11.6009 4.4652 3.15737 1.30687 1.61504 1.22344 8.39537e-14 -5.90931e-06 -1.01324e-05
183 Si 13.5344 5.5815 6.31474 1.16147 -0.35416 -4.22404 6.36758e-06 3.18457e-06 1.7041e-07
184 Si 15.4679 6.6978 9.47212 2.34752 3.87099 -1.05414 -6.3676e-06 -2.10314e-06 -2.34e-06
185 Si 17.4014 7.8141 12.6295 4.27918 1.77989 -5.84022 -1.04161e-07 -6.11808e-06 4.60243e-06
186 Si 11.6009 6.6978 0 -0.807508 -1.10137 0.712819 2.67549e-07 -5.70914e-06 -5.44813e-06
187 Si 13.5344 7.8141 3.15737 0.822848 5.32123 -1.94588 6.47177e-06 -2.48132e-06 -7.29892e-06
188 Si 15.4679 8.9304 6.31474 -0.62344 -2.55759 3.70922 -6.36758e-06 1.17569e-05 -2.72792e-06
189 Si 17.4014 10.0467 9.47212 -5.65187 -6.87089 0.118751 -2.55004e-14 -6.05771e-06 -4.76552e-06
190 Si 19.3349 11.163 12.6295 -5.22178 0.917838 -1.74458 6.45914e-06 3.03616e-06 1.01954e-05
191 Si 13.5344 10.0467 0 -1.7454 -4.59526 -5.80206 6.63515e-06 -2.51659e-06 -2.60131e-06
192 Si 15.4679 11.163 3.15737 5.3155 -2.92751 -2.60697 -6.36759e-06 3.03617e-06 -4.21261e-06
193 Si 17.4014 12.2793 6.31474 -0.279002 -2.68981 0.780474 5.50671e-14 -5.9093e-06 -5.63787e-06
194 Si 19.3349 13.3956 9.47212 -0.472779 6.20764 -3.1346 6.36758e-06 3.18457e-06 8.56285e-07
195 Si 21.2684 14.5119 12.6295 4.7779 -0.896872 -5.21573 -6.3676e-06 -2.10314e-06 6.8876e-06
196 Si 15.4679 13.3956 0 0.869889 3.06332 -0.475981 -7.17521e-06 3.12802e-06 6.53189e-07
197 Si 17.4014 14.5119 3.15737 -2.23594 -0.421856 1.05758 -1.04161e-07 -5.53495e-06 -1.03433e-05
198 Si 19.3349 15.6282 6.31474 2.46937 -0.307558 7.03284 6.45915e-06 -2.19892e-06 -2.79899e-06
199 Si 21.2684 16.7445 9.47212 1.49628 -2.38518 -5.93316 -6.47174e-06 1.18488e-05 -2.01369e-06
200 Si 23.2018 17.8608 12.6295 2.89543 -1.61408 -2.96547 -2.08322e-07 -5.94475e-06 4.46258e-06
201 Si 21.2684 5.5815 15.7869 -1.60706 0.522578 -2.49299 2.08323e-07 2.83333e-06 -7.99467e-06
202 Si 23.2018 17.8608 3.15737 -1.37439 5.32831 -10.6008 6.47176e-06 1.16039e-05 -7.15417e-06
203 Si 15.4679 2.2326 6.31474 1.14501 -5.82582 -1.36448 -7.16262e-06 -2.42095e-06 -2.87982e-06
204 Si 27.0688 20.0934 9.47212 -1.14826 -5.69927 7.06977 1.04161e-07 8.12482e-06 -4.49541e-06
205 Si 19.3349 4.4652 12.6295 4.35786 -0.0690503 0.826252 6.47176e-06 -2.42562e-06 6.91546e-06
206 Si 13.5344 3.3489 0 -0.642745 -1.34941 -0.502417 6.57591e-06 2.86661e-06 7.99686e-07
207 Si 15.4679 4.4652 3.15737 0.352865 -6.79873 3.30299 -6.45916e-06 -2.27254e-06 -7.56081e-06
208 Si 17.4014 5.5815 6.31474 -3.62123 4.19393 -0.866947 -7.81597e-14 -4.52181e-07 -2.40116e-06
209 Si 19.3349 6.6978 9.47212 2.04175 2.94323 -4.79178 6.3676e-06 -2.10314e-06 -2.34e-06
210 Si 21.2684 7.8141 12.6295 -1.15297 0.56777 -0.494865 -6.47176e-06 -2.25533e-06 6.97414e-06
211 Si 25.1353 12.2793 15.7869 -2.69124 -3.78027 -0.0665731 7.16262e-06 -2.27254e-06 -2.72335e-06
212 Si 17.4014 7.8141 3.15737 1.96282 2.24283 -2.77855 1.04161e-07 -5.89209e-06 -9.9405e-06
213 Si 19.3349 8.9304 6.31474 3.22055 1.32491 -3.01567 6.36758e-06 1.17569e-05 -2.72792e-06
214 Si 21.2684 10.0467 9.47212 -1.19254 -0.00110523 -0.762276 -6.3676e-06 -2.42095e-06 -2.19394e-06
215 Si 23.2018 11.163 12.6295 0.945053 0.577266 1.38478 7.20396e-14 -6.0059e-07 7.62381e-06
216 Si 27.0688 15.6282 15.7869 -2.86916 6.69913 0.607881 2.08323e-07 -5.88742e-06 -4.98485e-06
217 Si 19.3349 11.163 3.15737 -2.12587 -0.501953 -0.126307 6.36759e-06 3.03617e-06 -4.21261e-06
218 Si 21.2684 12.2793 6.31474 -2.29043 -3.7032 3.86384 -6.3676e-06 -2.27254e-06 -3.06629e-06
219 Si 23.2018 13.3956 9.47212 0.859768 0.250682 -1.88093 7.12937e-14 -4.52181e-07 -1.71529e-06
220 Si 25.1353 14.5119 12.6295 -1.36236 0.755196 -0.853415 6.3676e-06 -2.10314e-06 6.8876e-06
221 Si 19.3349 13.3956 0 -0.0171289 5.09128 -0.374622 6.47174e-06 3.07158e-06 5.48348e-07
222 Si 21.2684 14.5119 3.15737 -1.17468 -2.61713 1.08259 -6.47177e-06 -2.01129e-06 -7.49204e-06
223 Si 23.2018 15.6282 6.31474 -0.937231 2.44064 3.27307 -1.04161e-07 -5.77913e-06 -5.51041e-06
224 Si 25.1353 16.7445 9.47212 4.06287 -0.160141 2.6351 6.45914e-06 1.19053e-05 -2.15354e-06
225 Si 27.0688 17.8608 12.6295 2.12052 1.58827 -0.969309 -6.57592e-06 -2.19511e-06 7.11398e-06
226 Si 15.4679 0 0 -1.08315 0.993614 -0.0837513 -7.74931e-06 6.23476e-06 -5.58949e-06
227 Si 27.0688 17.8608 3.15737 5.20298 -3.90828 -1.42795 1.63388e-07 8.00703e-06 -9.4677e-06
228 Si 19.3349 2.2326 6.31474 -1.43974 -0.409687 -2.1508 6.57592e-06 -2.53861e-06 -2.96302e-06
229 Si 30.9358 20.0934 9.47212 -0.141677 1.47188 -3.18392 -7.05844e-06 1.17522e-05 -2.16024e-06
230 Si 23.2018 4.4652 12.6295 1.32743 -4.11472 3.97706 5.92264e-08 -6.13543e-06 4.70186e-06
231 Si 27.0688 8.9304 15.7869 0.096813 0.656759 -0.370779 2.67549e-07 -4.00434e-07 -2.09993e-06
232 Si 19.3349 4.4652 3.15737 -0.775689 -4.27515 -1.17559 6.57593e-06 -2.3902e-06 -7.64401e-06
233 Si 21.2684 5.5815 6.31474 -1.83395 -1.31259 7.36939 -6.36758e-06 3.18457e-06 1.7041e-07
234 Si 23.2018 6.6978 9.47212 -0.364801 -0.137087 -4.07572 5.92264e-08 -5.70929e-06 -4.88993e-06
235 Si 25.1353 7.8141 12.6295 1.41931 -0.885569 1.4713 6.66747e-06 -2.48598e-06 6.99087e-06
236 Si 19.3349 6.6978 0 -0.782965 -2.12167 5.25305 6.63515e-06 -2.42081e-06 -2.82819e-06
237 Si 21.2684 7.8141 3.15737 3.52564 -2.4716 -3.31757 -6.36761e-06 -2.36832e-06 -7.33392e-06
238 Si 23.2018 8.9304 6.31474 -0.729164 -0.369058 0.543064 5.9226e-08 8.15077e-06 -5.27785e-06
239 Si 25.1353 10.0467 9.47212 0.616926 -2.14492 -1.33472 6.57592e-06 -2.53861e-06 -2.27714e-06
240 Si 27.0688 11.163 12.6295 0.0171458 -0.46987 0.787855 -6.36758e-06 3.03616e-06 1.01954e-05
241 Si 21.2684 10.0467 0 -0.408754 -0.330474 2.12267 -7.05846e-06 -2.48132e-06 -2.46147e-06
242 Si 23.2018 11.163 3.15737 -3.29405 0.53778 -0.5108 5.92263e-08 -5.69984e-07 -6.76254e-06
243 Si 25.1353 12.2793 6.31474 -2.53177 0.141056 1.77551 6.57592e-06 -2.3902e-06 -3.14949e-06
244 Si 27.0688 13.3956 9.47212 -3.26663 0.879069 3.53786 -6.36758e-06 3.18457e-06 8.56285e-07
245 Si 29.0023 14.5119 12.6295 -6.73775 -0.641597 -3.32892 -4.4935e-08 -5.82229e-06 4.4376e-06
246 Si 23.2018 13.3956 0 0.35664 -4.74062 -7.06626 5.92261e-08 -2.52024e-07 -2.21142e-06
247 Si 25.1353 14.5119 3.15737 -3.74442 1.81763 3.83584 6.66748e-06 -2.0724e-06 -7.71509e-06
248 Si 27.0688 15.6282 6.31474 -2.144 6.20257 0.768302 -6.47176e-06 -2.25547e-06 -2.65914e-06
249 Si 29.0023 16.7445 9.47212 4.68621 0.407544 0.142351 -4.49352e-08 8.35573e-06 -4.84331e-06
250 Si 30.9358 17.8608 12.6295 0.984651 -2.24043 -3.53408 6.75903e-06 -2.36921e-06 6.99087e-06
ITEM: TIMESTEP
100
ITEM: NUMBER OF ATOMS
250
ITEM: BOX BOUNDS xy xz yz pp pp pp
6.3848045039060733e-02 3.8478202858278358e+01 9.6035889516587147e+00
5.5294028335435341e-02 2.2233831286107566e+01 9.6035889516587147e+00
5.2131711473323281e-02 1.5734726288526666e+01 5.5446343144430390e+00
ITEM: ATOMS id element x y z vx vy vz fx fy fz
1 Si 1.94304 1.14742 0.735891 -0.292267 -1.4547 2.32097 0.228946 0.312641 0.130017
2 Si 3.94199 2.31173 4.00726 1.32968 -0.612132 0.920479 -0.238249 -0.491431 -0.337545
3 Si 5.87146 3.33781 7.17487 2.00621 -1.63839 -0.729869 0.105263 -0.0185004 -0.122006
4 Si 7.81852 4.38323 10.3677 0.546923 -1.83714 2.11534 -0.309635 0.360678 0.193246
5 Si 9.41124 5.56975 13.2956 -0.799747 1.7236 -2.92478 0.202058 -0.00960656 0.205771
6 Si 3.82577 4.57859 0.813098 -2.02105 2.17727 -1.84044 0.187621 -0.00192504 -0.336443
7 Si 5.66134 5.60672 4.05096 0.668182 -0.188458 0.816832 0.568795 -0.143064 -0.28847
8 Si 7.88477 6.5941 7.13848 -0.182736 4.24871 1.53071 -0.500446 0.0830418 -0.0183269
9 Si 9.68237 7.81174 10.2742 -0.552368 0.696774 2.64114 0.357508 0.277794 -0.0341961
10 Si 11.5409 8.87165 13.32 -1.86586 1.55103 -0.0605226 -0.247625 -0.15466 -0.398779
11 Si 5.86034 7.82551 0.928732 0.886311 0.832396 1.72753 -0.101834 0.0333001 -0.457748
12 Si 7.90866 8.92994 3.9883 1.01231 3.35803 -0.396914 -0.451818 -0.205741 -0.308903
13 Si 9.55079 9.99245 7.11652 0.949741 0.775328 3.58916 0.368275 -0.0306426 0.0806722
14 Si 11.5006 11.2897 10.3631 -2.70535 -3.06928 0.168475 0.103104 0.0960133 -0.670172
15 Si 13.5036 12.2439 13.2737 0.270904 1.10379 -0.0285848 0.00533123 -0.715845 0.127422
16 Si 7.74235 11.405 0.982453 -2.30766 0.812686 1.43031 -0.242772 -0.6632 -0.0250746
17 Si 9.76058 12.079 4.09266 1.16557 0.888869 1.8246 -0.352587 0.474723 -0.309333
18 Si 11.5793 13.3434 6.9977 -3.58494 1.64896 5.10583 0.10021 0.226563 0.0354958
19 Si 13.5628 14.4777 10.2515 2.85597 0.0710817 -1.4007 -0.204047 0.30695 -0.622321
20 Si 15.4197 15.5097 13.4289 -1.8744 0.775463 -0.757993 0.383603 0.439798 0.230772
21 Si 9.71842 14.4462 0.859953 3.83244 1.10835 0.872089 -0.387178 -0.124132 0.206136
22 Si 11.7116 15.5485 3.90019 -0.508432 -3.60131 -3.20476 -0.264752 0.292829 0.179015
23 Si 13.5668 16.7514 7.24163 -1.45704 -0.768258 1.43283 0.325656 0.122174 -0.0828846
24 Si 15.6032 17.8336 10.1715 -0.695146 1.14092 4.07834 -0.595582 -0.00719205 0.287135
25 Si 17.3286 18.8108 13.5639 -5.84662 1.7572 4.42914 -0.443217 -0.0805994 -0.279389
26 Si 5.68236 1.18871 0.720135 -2.2056 0.106334 0.755187 -0.166981 0.217984 0.101819
27 Si 7.67742 2.19783 3.93762 -2.11893 0.0611883 0.738992 -0.239092 0.817395 0.459125
28 Si 9.8456 3.43154 7.2001 1.04562 1.83424 2.1755 -0.26593 -0.354127 -0.651785
29 Si 11.5466 4.31601 10.2924 -2.71259 1.10045 1.84127 0.0933511 0.143247 -0.144588
30 Si 13.3144 5.61036 13.19 -0.941798 4.99614 -2.97514 -0.394659 -0.357551 0.381778
31 Si 7.63155 4.33934 0.891319 -1.91922 3.11454 -1.22641 0.858124 0.23149 0.234783
32 Si 9.62177 5.59557 4.02986 1.02819 -1.90894 0.080927 -0.500824 0.0513212 -0.409579
33 Si 11.7104 6.75384 7.24046 -0.971845 -1.96112 2.68992 0.138222 0.214972 0.134271
34 Si 13.5533 7.79749 10.2837 0.878945 0.687078 1.26859 0.0391554 -0.300916 -0.680307
35 Si 15.4461 9.04084 13.3134 0.873745 -1.7698 -0.776209 -0.0895946 -0.0523712 -0.0132229
36 Si 9.66611 7.90778 0.797235 0.816969 -2.48803 0.5912 0.125189 -0.240791 0.0423988
37 Si 11.6544 8.85932 4.1565 4.44943 2.28985 -2.13357 0.00284086 -0.883051 -0.400183
38 Si 13.5153 10.1657 7.14262 0.778395 1.4809 0.316279 -0.0976623 -0.653704 0.0810437
39 Si 15.397 11.1353 10.1325 1.08535 1.06298 0.106105 -0.357755 -0.257916 0.0344704
40 Si 17.3136 12.3537 13.5232 -2.42639 -0.352522 -0.316441 -0.308323 -0.138865 0.165896
41 Si 11.6369 11.08 0.953535 4.07181 -1.94141 4.38962 -0.335269 -0.0660891 -0.915195
42 Si 13.6376 12.1749 3.84639 5.4498 4.88866 1.244 -0.0292502 0.169665 -0.549609
43 Si 15.3751 13.3484 6.98253 2.66589 2.8432 -0.610369 0.295098 0.208882 0.339401
44 Si 17.284 14.4171 10.3295 -1.70485 1.71313 -0.60019 -0.179157 -0.543626 -0.0366929
45 Si 19.5076 15.5538 13.4182 4.52759 0.165186 2.19632 -0.765183 -0.37159 -0.0900643
46 Si 13.5714 14.5683 0.813952 1.41215 0.246595 0.638861 -0.471571 -0.464979 -0.142779
47 Si 15.4766 15.6966 4.12668 1.50815 0.160107 -1.33683 -0.18502 -0.428461 -0.444795
48 Si 17.4479 16.8013 7.22683 2.52448 -3.43029 1.05114 -0.286756 0.277725 -0.954317
49 Si 19.284 17.6834 10.4429 -0.938245 -1.16882 1.74669 0.324282 0.0913594 -0.00676641
50 Si 21.3492 18.9381 13.4105 4.38994 4.37382 1.5199 -0.968485 -0.485811 0.296267
51 Si 9.55367 1.32416 0.845249 0.52684 -0.599195 -0.889236 0.709696 0.585545 -0.579348
52 Si 11.5274 2.30732 4.01566 3.52802 3.19593 -1.97363 -0.0434754 -0.147001 0.745416
53 Si 13.7419 3.45376 7.17358 0.153698 -1.82804 -6.02934 -0.525892 -0.176845 0.479945
54 Si 15.5574 4.41217 10.3908 1.0655 2.42228 -0.132731 -0.336335 0.671014 -0.358954
55 Si 17.3034 5.62305 13.3907 1.61763 1.11147 4.87429 -0.18569 0.256115 -0.356625
56 Si 11.646 4.5978 0.971691 -2.06472 -3.29758 -1.28051 -0.0244672 0.0319243 -0.428709
57 Si 13.5859 5.5373 3.87385 2.72961 4.10254 -2.40344 -0.187365 0.750431 0.306441
58 Si 15.3784 6.74311 7.01753 0.250666 -1.72277 0.556631 0.252266 0.136488 0.710304
59 Si 17.3945 7.78756 10.3616 2.786 -3.31552 -5.33314 -0.549147 0.054504 -0.0355876
60 Si 19.3121 9.14238 13.3212 0.027962 -0.547781 1.58456 0.075613 -0.597432 0.627391
61 Si 13.6373 7.78975 0.83097 -2.13748 -1.77818 -0.49952 -0.212769 0.487517 0.0501768
62 Si 15.5102 8.94393 3.89612 0.441331 -1.20424 3.89943 -0.191823 -0.15754 -0.38404
63 Si 17.4424 9.82743 6.94613 -0.366573 0.283351 0.479664 0.487529 -0.0372233 0.402874
64 Si 19.019 11.1595 10.1918 -0.242776 -1.44198 -3.07307 -0.102594 0.234154 0.140447
65 Si 21.1348 12.1051 13.3966 -0.722995 2.52843 -0.710179 0.51359 0.152462 0.757255
66 Si 15.1934 11.1958 0.762479 2.74958 2.39119 -1.49368 0.121252 0.390816 -0.025989
67 Si 17.4166 12.2549 4.06721 -1.68139 0.017536 -1.70151 0.266569 0.507974 -0.38698
68 Si 19.1455 13.2532 7.11333 0.919271 -0.178766 -2.55792 0.357483 0.339315 0.363046
69 Si 21.2125 14.3478 10.2319 -0.728788 -2.73346 -2.02194 0.184451 -0.156051 0.808169
70 Si 23.1551 15.6424 13.2016 -1.54871 -1.73581 0.270006 0.604377 -0.0607181 0.276401
71 Si 17.3844 14.6758 0.898783 -0.0486127 -2.9498 1.61307 -0.412287 -0.319486 0.270837