<?xml version="1.0" encoding="ISO-8859-1"?>
<modeling>
 <generator>
  <i name="program" type="string">vasp </i>
  <i name="version" type="string">6.2.1  </i>
  <i name="subversion" type="string">16May21 (build Oct 27 2021 18:14:32) complex                          parallel </i>
  <i name="platform" type="string">LinuxIFC </i>
  <i name="date" type="string">2021 11 23 </i>
  <i name="time" type="string">17:31:46 </i>
 </generator>
 <incar>
  <i type="string" name="PREC">Accurate</i>
  <i type="string" name="ALGO">Normal</i>
  <i type="int" name="ISPIN">     2</i>
  <i type="int" name="NELM">   200</i>
  <i type="int" name="IBRION">    -1</i>
  <i name="EDIFF">      0.00001000</i>
  <i name="EDIFFG">     -0.02000000</i>
  <i type="int" name="NSW">     1</i>
  <i type="int" name="ISIF">     3</i>
  <i name="ENCUT">    680.00000000</i>
  <i name="ENAUG">   1360.00000000</i>
  <v name="MAGMOM">      0.60000000      0.60000000</v>
  <i type="string" name="LREAL">Auto</i>
  <i type="int" name="ISMEAR">    -5</i>
  <i name="SIGMA">      0.05000000</i>
  <i type="logical" name="LWAVE"> F  </i>
  <i type="logical" name="LCHARG"> T  </i>
  <i type="logical" name="LVTOT"> T  </i>
  <i type="int" name="LORBIT">    11</i>
  <i type="logical" name="LELF"> T  </i>
  <i type="logical" name="LASPH"> T  </i>
  <i type="logical" name="LAECHG"> T  </i>
  <i type="logical" name="LMIXTAU"> T  </i>
 </incar>
 <primitive_cell>
  <structure name="primitive_cell" >
   <crystal>
    <varray name="basis" >
     <v>       3.34889800       0.00000000       1.93348700 </v>
     <v>       1.11629900       3.15737200       1.93348700 </v>
     <v>       0.00000000       0.00000000       3.86697500 </v>
    </varray>
    <i name="volume">     40.88829843 </i>
    <varray name="rec_basis" >
     <v>       0.29860569      -0.10557300       0.00000000 </v>
     <v>       0.00000000       0.31671909       0.00000000 </v>
     <v>      -0.14930281      -0.10557302       0.25860007 </v>
    </varray>
   </crystal>
   <varray name="positions" >
    <v>       0.25000000       0.25000000       0.25000000 </v>
    <v>       0.00000000       0.00000000       0.00000000 </v>
   </varray>
  </structure>
  <varray name="primitive_index" >
   <v type="int" >        1 </v>
   <v type="int" >        2 </v>
  </varray>
 </primitive_cell>
 <kpoints>
  <generation param="Gamma">
   <v type="int" name="divisions">       6        6        6 </v>
   <v name="usershift">      0.00000000       0.00000000       0.00000000 </v>
   <v name="genvec1">      0.16666667      -0.00000000       0.00000000 </v>
   <v name="genvec2">      0.00000000       0.16666667       0.00000000 </v>
   <v name="genvec3">      0.00000000       0.00000000       0.16666667 </v>
   <v name="shift">      0.00000000       0.00000000       0.00000000 </v>
  </generation>
  <varray name="kpointlist" >
   <v>       0.00000000       0.00000000       0.00000000 </v>
   <v>       0.16666667       0.00000000       0.00000000 </v>
   <v>       0.33333333       0.00000000       0.00000000 </v>
   <v>       0.50000000       0.00000000       0.00000000 </v>
   <v>       0.16666667       0.16666667       0.00000000 </v>
   <v>       0.33333333       0.16666667       0.00000000 </v>
   <v>       0.50000000       0.16666667       0.00000000 </v>
   <v>      -0.33333333       0.16666667       0.00000000 </v>
   <v>      -0.16666667       0.16666667       0.00000000 </v>
   <v>       0.33333333       0.33333333       0.00000000 </v>
   <v>       0.50000000       0.33333333       0.00000000 </v>
   <v>      -0.33333333       0.33333333       0.00000000 </v>
   <v>       0.50000000       0.50000000       0.00000000 </v>
   <v>       0.50000000       0.33333333       0.16666667 </v>
   <v>      -0.33333333       0.33333333       0.16666667 </v>
   <v>      -0.33333333       0.50000000       0.16666667 </v>
  </varray>
  <varray name="weights" >
   <v>       0.00462963 </v>
   <v>       0.03703704 </v>
   <v>       0.03703704 </v>
   <v>       0.01851852 </v>
   <v>       0.02777778 </v>
   <v>       0.11111111 </v>
   <v>       0.11111111 </v>
   <v>       0.11111111 </v>
   <v>       0.05555556 </v>
   <v>       0.02777778 </v>
   <v>       0.11111111 </v>
   <v>       0.05555556 </v>
   <v>       0.01388889 </v>
   <v>       0.11111111 </v>
   <v>       0.11111111 </v>
   <v>       0.05555556 </v>
  </varray>
  <varray name="tetrahedronlist"  type="int" >
   <v type="int" >       24        1        2        2        5 </v>
   <v type="int" >       48        2        5        6        9 </v>
   <v type="int" >       48        2        3        6        9 </v>
   <v type="int" >       24        2        2        5        9 </v>
   <v type="int" >       48        3        6        7        8 </v>
   <v type="int" >       48        3        4        7        8 </v>
   <v type="int" >       48        3        6        8        9 </v>
   <v type="int" >       48        4        7        7        8 </v>
   <v type="int" >       24        5        6        6       10 </v>
   <v type="int" >       24        5        6        6        9 </v>
   <v type="int" >       48        6       10       11       14 </v>
   <v type="int" >       48        6        7       11       14 </v>
   <v type="int" >       48        6        7        8       14 </v>
   <v type="int" >       24        6        6       10       14 </v>
   <v type="int" >       24        6        6        9       14 </v>
   <v type="int" >       48        6        8        9       14 </v>
   <v type="int" >       48        7       11       12       15 </v>
   <v type="int" >       48        7        8       12       15 </v>
   <v type="int" >       48        7        7        8       15 </v>
   <v type="int" >       48        7       11       14       15 </v>
   <v type="int" >       48        7        8       14       15 </v>
   <v type="int" >       24        8        8       12       14 </v>
   <v type="int" >       24        8        8        9       14 </v>
   <v type="int" >       48        8       12       14       15 </v>
   <v type="int" >       24       10       11       11       13 </v>
   <v type="int" >       24       10       11       11       14 </v>
   <v type="int" >       48       11       11       13       16 </v>
   <v type="int" >       24       11       11       12       16 </v>
   <v type="int" >       48       11       12       15       16 </v>
   <v type="int" >       24       11       11       14       16 </v>
   <v type="int" >       48       11       14       15       16 </v>
   <v type="int" >       24       12       15       15       16 </v>
   <v type="int" >       24       12       14       15       15 </v>
   <v type="int" >       24       14       15       15       16 </v>
   <v type="int" >       24       15       15       16       16 </v>
  </varray>
  <i name="volumeweight">      0.00077160 </i>
 </kpoints>
 <parameters>
  <separator name="general" >
   <i type="string" name="SYSTEM">unknown system</i>
   <i type="logical" name="LCOMPAT"> F  </i>
  </separator>
  <separator name="electronic" >
   <i type="string" name="PREC">accura</i>
   <i name="ENMAX">    680.00000000</i>
   <i name="ENAUG">   1360.00000000</i>
   <i name="EDIFF">      0.00001000</i>
   <i type="int" name="IALGO">    38</i>
   <i type="int" name="IWAVPR">    10</i>
   <i type="int" name="NBANDS">     9</i>
   <i type="int" name="NBANDSLOW">    -1</i>
   <i type="int" name="NBANDSHIGH">    -1</i>
   <i name="NELECT">      8.00000000</i>
   <i type="int" name="TURBO">     0</i>
   <i type="int" name="IRESTART">     0</i>
   <i type="int" name="NREBOOT">     0</i>
   <i type="int" name="NMIN">     0</i>
   <i name="EREF">      0.00000000</i>
   <separator name="electronic smearing" >
    <i type="int" name="ISMEAR">    -5</i>
    <i name="SIGMA">      0.05000000</i>
    <i name="KSPACING">      0.50000000</i>
    <i type="logical" name="KGAMMA"> T  </i>
    <i type="logical" name="KBLOWUP"> T  </i>
   </separator>
   <separator name="electronic projectors" >
    <i type="logical" name="LREAL"> T  </i>
    <v name="ROPT">     -0.00025000</v>
    <i type="int" name="LMAXPAW">  -100</i>
    <i type="int" name="LMAXMIX">     2</i>
    <i type="logical" name="NLSPLINE"> F  </i>
   </separator>
   <separator name="electronic startup" >
    <i type="int" name="ISTART">     0</i>
    <i type="int" name="ICHARG">     2</i>
    <i type="int" name="INIWAV">     1</i>
   </separator>
   <separator name="electronic spin" >
    <i type="int" name="ISPIN">     2</i>
    <i type="logical" name="LNONCOLLINEAR"> F  </i>
    <v name="MAGMOM">      0.60000000      0.60000000</v>
    <i name="NUPDOWN">     -1.00000000</i>
    <i type="logical" name="LSORBIT"> F  </i>
    <v name="SAXIS">      0.00000000      0.00000000      1.00000000</v>
    <i type="logical" name="LSPIRAL"> F  </i>
    <v name="QSPIRAL">      0.00000000      0.00000000      0.00000000</v>
    <i type="logical" name="LZEROZ"> F  </i>
   </separator>
   <separator name="electronic exchange-correlation" >
    <i type="logical" name="LASPH"> T  </i>
    <i type="logical" name="LMETAGGA"> F  </i>
   </separator>
   <separator name="electronic convergence" >
    <i type="int" name="NELM">   200</i>
    <i type="int" name="NELMDL">    -5</i>
    <i type="int" name="NELMIN">     2</i>
    <i name="ENINI">    680.00000000</i>
    <separator name="electronic convergence detail" >
     <i type="logical" name="LDIAG"> T  </i>
     <i type="logical" name="LSUBROT"> F  </i>
     <i name="WEIMIN">      0.00000000</i>
     <i name="EBREAK">      0.00000028</i>
     <i name="DEPER">      0.30000000</i>
     <i type="int" name="NRMM">     4</i>
     <i name="TIME">      0.40000000</i>
    </separator>
   </separator>
   <separator name="electronic mixer" >
    <i name="AMIX">      0.40000000</i>
    <i name="BMIX">      1.00000000</i>
    <i name="AMIN">      0.10000000</i>
    <i name="AMIX_MAG">      1.60000000</i>
    <i name="BMIX_MAG">      1.00000000</i>
    <separator name="electronic mixer details" >
     <i type="int" name="IMIX">     4</i>
     <i type="logical" name="MIXFIRST"> F  </i>
     <i type="int" name="MAXMIX">   -45</i>
     <i name="WC">    100.00000000</i>
     <i type="int" name="INIMIX">     1</i>
     <i type="int" name="MIXPRE">     1</i>
     <i type="int" name="MREMOVE">     5</i>
    </separator>
   </separator>
   <separator name="electronic dipolcorrection" >
    <i type="logical" name="LDIPOL"> F  </i>
    <i type="logical" name="LMONO"> F  </i>
    <i type="int" name="IDIPOL">     0</i>
    <i name="EPSILON">      1.00000000</i>
    <v name="DIPOL">   -100.00000000   -100.00000000   -100.00000000</v>
    <i name="EFIELD">      0.00000000</i>
   </separator>
  </separator>
  <separator name="grids" >
   <i type="int" name="NGX">    36</i>
   <i type="int" name="NGY">    36</i>
   <i type="int" name="NGZ">    36</i>
   <i type="int" name="NGXF">    72</i>
   <i type="int" name="NGYF">    72</i>
   <i type="int" name="NGZF">    72</i>
   <i type="logical" name="ADDGRID"> F  </i>
  </separator>
  <separator name="ionic" >
   <i type="int" name="NSW">     1</i>
   <i type="int" name="IBRION">    -1</i>
   <i type="int" name="MDALGO">     0</i>
   <i type="int" name="ISIF">     3</i>
   <i name="PSTRESS">      0.00000000</i>
   <i name="EDIFFG">     -0.02000000</i>
   <i type="int" name="NFREE">     0</i>
   <i name="POTIM">      0.50000000</i>
   <i name="SMASS">     -3.00000000</i>
   <i name="SCALEE">      1.00000000</i>
  </separator>
  <separator name="ionic md" >
   <i name="TEBEG">      0.00010000</i>
   <i name="TEEND">      0.00010000</i>
   <i type="int" name="NBLOCK">     1</i>
   <i type="int" name="KBLOCK">     1</i>
   <i type="int" name="NPACO">   256</i>
   <i name="APACO">     16.00000000</i>
  </separator>
  <separator name="symmetry" >
   <i type="int" name="ISYM">     2</i>
   <i name="SYMPREC">      0.00001000</i>
  </separator>
  <separator name="dos" >
   <i type="int" name="LORBIT">    11</i>
   <v name="RWIGS">     -1.00000000</v>
   <i type="int" name="NEDOS">   301</i>
   <i name="EMIN">     10.00000000</i>
   <i name="EMAX">    -10.00000000</i>
   <i name="EFERMI">      0.00000000</i>
  </separator>
  <separator name="writing" >
   <i type="int" name="NWRITE">     2</i>
   <i type="logical" name="LWAVE"> F  </i>
   <i type="logical" name="LDOWNSAMPLE"> F  </i>
   <i type="logical" name="LCHARG"> T  </i>
   <i type="logical" name="LPARD"> F  </i>
   <i type="logical" name="LVTOT"> T  </i>
   <i type="logical" name="LVHAR"> F  </i>
   <i type="logical" name="LELF"> T  </i>
   <i type="logical" name="LOPTICS"> F  </i>
   <v name="STM">      0.00000000      0.00000000      0.00000000      0.00000000      0.00000000      0.00000000      0.00000000</v>
  </separator>
  <separator name="performance" >
   <i type="int" name="NPAR">     1</i>
   <i type="int" name="NSIM">     4</i>
   <i type="int" name="NBLK">    -1</i>
   <i type="logical" name="LPLANE"> T  </i>
   <i type="logical" name="LSCALAPACK"> F  </i>
   <i type="logical" name="LSCAAWARE"> F  </i>
   <i type="logical" name="LSCALU"> F  </i>
   <i type="logical" name="LASYNC"> F  </i>
   <i type="logical" name="LORBITALREAL"> F  </i>
  </separator>
  <separator name="miscellaneous" >
   <i type="int" name="IDIOT">     3</i>
   <i type="int" name="PHON_NSTRUCT">    -1</i>
   <i type="logical" name="LMUSIC"> F  </i>
   <v name="POMASS">     28.08500000</v>
   <v name="DARWINR">      0.00000000</v>
   <v name="DARWINV">      1.00000000</v>
   <i type="logical" name="LCORR"> T  </i>
  </separator>
  <i type="logical" name="GGA_COMPAT"> T  </i>
  <i type="logical" name="LBERRY"> F  </i>
  <i type="int" name="ICORELEVEL">     0</i>
  <i type="logical" name="LDAU"> F  </i>
  <i type="int" name="I_CONSTRAINED_M">     0</i>
  <separator name="electronic exchange-correlation" >
   <i type="string" name="GGA">--</i>
   <i type="int" name="VOSKOWN">     0</i>
   <i type="logical" name="LHFCALC"> F  </i>
   <i type="string" name="PRECFOCK"></i>
   <i type="logical" name="LSYMGRAD"> F  </i>
   <i type="logical" name="LHFONE"> F  </i>
   <i type="logical" name="LRHFCALC"> F  </i>
   <i type="logical" name="LTHOMAS"> F  </i>
   <i type="logical" name="LMODELHF"> F  </i>
   <i type="logical" name="LFOCKACE"> F  </i>
   <i name="ENCUT4O">     -1.00000000</i>
   <i type="int" name="EXXOEP">     0</i>
   <i type="int" name="FOURORBIT">     0</i>
   <i name="AEXX">      0.00000000</i>
   <i name="HFALPHA">      0.00000000</i>
   <i name="MCALPHA">      0.00000000</i>
   <i name="ALDAX">      1.00000000</i>
   <i name="AGGAX">      1.00000000</i>
   <i name="ALDAC">      1.00000000</i>
   <i name="AGGAC">      1.00000000</i>
   <i type="int" name="NKREDX">     1</i>
   <i type="int" name="NKREDY">     1</i>
   <i type="int" name="NKREDZ">     1</i>
   <i type="logical" name="SHIFTRED"> F  </i>
   <i type="logical" name="ODDONLY"> F  </i>
   <i type="logical" name="EVENONLY"> F  </i>
   <i type="int" name="LMAXFOCK">     0</i>
   <i type="int" name="NMAXFOCKAE">     0</i>
   <i type="logical" name="LFOCKAEDFT"> F  </i>
   <i name="HFSCREEN">      0.00000000</i>
   <i name="HFSCREENC">      0.00000000</i>
   <i type="int" name="NBANDSGWLOW">     0</i>
  </separator>
  <separator name="vdW DFT" >
   <i type="logical" name="LUSE_VDW"> F  </i>
   <i name="Zab_VDW">     -0.84910000</i>
   <i name="PARAM1">      0.12340000</i>
   <i name="PARAM2">      1.00000000</i>
   <i name="PARAM3">      0.00000000</i>
  </separator>
  <separator name="model GW" >
   <i type="int" name="MODEL_GW">     0</i>
   <i name="MODEL_EPS0">     12.26648953</i>
   <i name="MODEL_ALPHA">      1.00000000</i>
  </separator>
  <separator name="linear response parameters" >
   <i type="logical" name="LEPSILON"> F  </i>
   <i type="logical" name="LRPA"> F  </i>
   <i type="logical" name="LNABLA"> F  </i>
   <i type="logical" name="LVEL"> F  </i>
   <i type="int" name="KINTER">     0</i>
   <i name="CSHIFT">      0.10000000</i>
   <i name="OMEGAMAX">     -1.00000000</i>
   <i name="DEG_THRESHOLD">      0.00200000</i>
   <i name="RTIME">     -0.10000000</i>
   <i name="WPLASMAI">      0.00000000</i>
   <v name="DFIELD">      0.00000000      0.00000000      0.00000000</v>
   <v name="WPLASMA">      0.00000000      0.00000000      0.00000000      0.00000000      0.00000000      0.00000000      0.00000000      0.00000000      0.00000000</v>
  </separator>
  <separator name="orbital magnetization" >
   <i type="logical" name="NUCIND"> F  </i>
   <v name="MAGPOS">      0.00000000      0.00000000      0.00000000</v>
   <i type="logical" name="LNICSALL"> T  </i>
   <i type="logical" name="ORBITALMAG"> F  </i>
   <i type="logical" name="LMAGBLOCH"> F  </i>
   <i type="logical" name="LCHIMAG"> F  </i>
   <i type="logical" name="LGAUGE"> T  </i>
   <i type="int" name="MAGATOM">     0</i>
   <v name="MAGDIPOL">      0.00000000      0.00000000      0.00000000</v>
   <v name="AVECCONST">      0.00000000      0.00000000      0.00000000</v>
  </separator>
  <separator name="response functions" >
   <i type="logical" name="LFINITE_TEMPERATURE"> F  </i>
   <i type="logical" name="LADDER"> F  </i>
   <i type="logical" name="LRPAFORCE"> F  </i>
   <i type="logical" name="LFXC"> F  </i>
   <i type="logical" name="LHARTREE"> T  </i>
   <i type="int" name="IBSE">     0</i>
   <v type="int" name="KPOINT">    -1     0     0     0</v>
   <i type="logical" name="LTCTC"> F  </i>
   <i type="logical" name="LTCTE"> F  </i>
   <i type="logical" name="LTETE"> F  </i>
   <i type="logical" name="LTRIPLET"> F  </i>
   <i type="logical" name="LFXCEPS"> F  </i>
   <i type="logical" name="LFXHEG"> F  </i>
   <i type="int" name="NATURALO">     2</i>
   <i type="logical" name="LHOLEGF"> F  </i>
   <i type="logical" name="L2ORDER"> F  </i>
   <i type="logical" name="LDMP1"> F  </i>
   <i type="logical" name="LMP2LT"> F  </i>
   <i type="logical" name="LSMP2LT"> F  </i>
   <i type="logical" name="LGWLF"> F  </i>
   <i name="ENCUTGW">     -2.00000000</i>
   <i name="ENCUTGWSOFT">     -2.00000000</i>
   <i name="ENCUTLF">     -1.00000000</i>
   <i type="logical" name="LESF_SPLINES"> F  </i>
   <i type="int" name="LMAXMP2">    -1</i>
   <i name="SCISSOR">      0.00000000</i>
   <i type="int" name="NOMEGA">     0</i>
   <i type="int" name="NOMEGAR">     0</i>
   <i type="int" name="NBANDSGW">    -1</i>
   <i type="int" name="NBANDSO">    -1</i>
   <i type="int" name="NBANDSV">    -1</i>
   <i type="int" name="NELM">   200</i>
   <i type="int" name="NELMHF">     1</i>
   <i type="int" name="DIM">     3</i>
   <i type="int" name="IESPILON">     4</i>
   <i type="int" name="ANTIRES">     0</i>
   <i name="OMEGAMAX">    -30.00000000</i>
   <i name="OMEGAMIN">    -30.00000000</i>
   <i name="OMEGATL">   -200.00000000</i>
   <i type="int" name="OMEGAGRID">     0</i>
   <i name="CSHIFT">     -0.10000000</i>
   <i type="logical" name="LSELFENERGY"> F  </i>
   <i type="logical" name="LSPECTRAL"> F  </i>
   <i type="logical" name="LSPECTRALGW"> F  </i>
   <i type="logical" name="LSINGLES"> F  </i>
   <i type="logical" name="LFERMIGW"> F  </i>
   <i type="logical" name="ODDONLYGW"> F  </i>
   <i type="logical" name="EVENONLYGW"> F  </i>
   <i type="int" name="NKREDLFX">     1</i>
   <i type="int" name="NKREDLFY">     1</i>
   <i type="int" name="NKREDLFZ">     1</i>
   <i type="int" name="MAXMEM">  2800</i>
   <i type="int" name="TELESCOPE">     0</i>
   <i type="int" name="NTAUPAR">    -1</i>
   <i type="int" name="NOMEGAPAR">    -1</i>
   <i name="DAMP_NEWTON">      0.80000001</i>
   <i name="LAMBDA">      1.00000000</i>
  </separator>
  <separator name="External order field" >
   <i name="OFIELD_KAPPA">      0.00000000</i>
   <v name="OFIELD_K">      0.00000000      0.00000000      0.00000000</v>
   <i name="OFIELD_Q6_NEAR">      0.00000000</i>
   <i name="OFIELD_Q6_FAR">      0.00000000</i>
   <i name="OFIELD_A">      0.00000000</i>
  </separator>
 </parameters>
 <atominfo>
  <atoms>       2 </atoms>
  <types>       1 </types>
  <array name="atoms" >
   <dimension dim="1">ion</dimension>
   <field type="string">element</field>
   <field type="int">atomtype</field>
   <set>
    <rc><c>Si</c><c>   1</c></rc>
    <rc><c>Si</c><c>   1</c></rc>
   </set>
  </array>
  <array name="atomtypes" >
   <dimension dim="1">type</dimension>
   <field type="int">atomspertype</field>
   <field type="string">element</field>
   <field>mass</field>
   <field>valence</field>
   <field type="string">pseudopotential</field>
   <set>
    <rc><c>   2</c><c>Si</c><c>     28.08500000</c><c>      4.00000000</c><c>  PAW_PBE Si 05Jan2001                  </c></rc>
   </set>
  </array>
 </atominfo>
 <structure name="initialpos" >
  <crystal>
   <varray name="basis" >
    <v>       3.34889800       0.00000000       1.93348700 </v>
    <v>       1.11629900       3.15737200       1.93348700 </v>
    <v>       0.00000000       0.00000000       3.86697500 </v>
   </varray>
   <i name="volume">     40.88829843 </i>
   <varray name="rec_basis" >
    <v>       0.29860569      -0.10557300       0.00000000 </v>
    <v>       0.00000000       0.31671909       0.00000000 </v>
    <v>      -0.14930281      -0.10557302       0.25860007 </v>
   </varray>
  </crystal>
  <varray name="positions" >
   <v>       0.25000000       0.25000000       0.25000000 </v>
   <v>       0.00000000       0.00000000       0.00000000 </v>
  </varray>
  <varray name="velocities" >
   <v>       0.00000000       0.00000000       0.00000000 </v>
   <v>       0.00000000       0.00000000       0.00000000 </v>
  </varray>
 </structure>
 <calculation>
  <scstep>
   <time name="dav">    0.58    0.59</time>
   <time name="total">    0.85    0.85</time>
   <energy>
    <i name="alphaZ">      3.29317992 </i>
    <i name="ewald">   -226.94489173 </i>
    <i name="hartreedc">    -11.32339116 </i>
    <i name="XCdc">    -18.60569953 </i>
    <i name="pawpsdc">    176.18363791 </i>
    <i name="pawaedc">   -140.99252705 </i>
    <i name="eentropy">      0.00000000 </i>
    <i name="bandstr">     22.73220825 </i>
    <i name="atom">    206.13322186 </i>
    <i name="e_fr_energy">     10.47573847 </i>
    <i name="e_wo_entrp">     10.47573847 </i>
    <i name="e_0_energy">     10.47573847 </i>
   </energy>
  </scstep>
  <scstep>
   <time name="dav">    0.77    0.78</time>
   <time name="total">    0.77    0.78</time>
   <energy>
    <i name="e_fr_energy">    -10.31350967 </i>
    <i name="e_wo_entrp">    -10.31350967 </i>
    <i name="e_0_energy">    -10.31350967 </i>
   </energy>
  </scstep>
  <scstep>
   <time name="dav">    0.75    0.77</time>
   <time name="total">    0.75    0.77</time>
   <energy>
    <i name="e_fr_energy">    -10.80969976 </i>
    <i name="e_wo_entrp">    -10.80969976 </i>
    <i name="e_0_energy">    -10.80969976 </i>
   </energy>
  </scstep>
  <scstep>
   <time name="dav">    0.77    0.78</time>
   <time name="total">    0.78    0.78</time>
   <energy>
    <i name="e_fr_energy">    -10.81335765 </i>
    <i name="e_wo_entrp">    -10.81335765 </i>
    <i name="e_0_energy">    -10.81335765 </i>
   </energy>
  </scstep>
  <scstep>
   <time name="dav">    0.77    0.78</time>
   <time name="total">    0.81    0.82</time>
   <energy>
    <i name="e_fr_energy">    -10.81337321 </i>
    <i name="e_wo_entrp">    -10.81337321 </i>
    <i name="e_0_energy">    -10.81337321 </i>
   </energy>
  </scstep>
  <scstep>
   <time name="dav">    0.75    0.76</time>
   <time name="total">    1.06    1.07</time>
   <energy>
    <i name="e_fr_energy">    -10.86906501 </i>
    <i name="e_wo_entrp">    -10.86906501 </i>
    <i name="e_0_energy">    -10.86906501 </i>
   </energy>
  </scstep>
  <scstep>
   <time name="dav">    0.72    0.73</time>
   <time name="total">    1.06    1.06</time>
   <energy>
    <i name="e_fr_energy">    -10.81048626 </i>
    <i name="e_wo_entrp">    -10.81048626 </i>
    <i name="e_0_energy">    -10.81048626 </i>
   </energy>
  </scstep>
  <scstep>
   <time name="dav">    0.74    0.74</time>
   <time name="total">    1.07    1.08</time>
   <energy>
    <i name="e_fr_energy">    -10.82503298 </i>
    <i name="e_wo_entrp">    -10.82503298 </i>
    <i name="e_0_energy">    -10.82503298 </i>
   </energy>
  </scstep>
  <scstep>
   <time name="dav">    0.79    0.79</time>
   <time name="total">    1.13    1.14</time>
   <energy>
    <i name="e_fr_energy">    -10.82696263 </i>
    <i name="e_wo_entrp">    -10.82696263 </i>
    <i name="e_0_energy">    -10.82696263 </i>
   </energy>
  </scstep>
  <scstep>
   <time name="dav">    0.69    0.70</time>
   <time name="total">    1.07    1.07</time>
   <energy>
    <i name="e_fr_energy">    -10.82742227 </i>
    <i name="e_wo_entrp">    -10.82742227 </i>
    <i name="e_0_energy">    -10.82742227 </i>
   </energy>
  </scstep>
  <scstep>
   <time name="dav">    0.72    0.73</time>
   <time name="total">    1.07    1.07</time>
   <energy>
    <i name="e_fr_energy">    -10.82748865 </i>
    <i name="e_wo_entrp">    -10.82748865 </i>
    <i name="e_0_energy">    -10.82748865 </i>
   </energy>
  </scstep>
  <scstep>
   <time name="dav">    0.66    0.66</time>
   <time name="total">    0.98    0.99</time>
   <energy>
    <i name="e_fr_energy">    -10.82750492 </i>
    <i name="e_wo_entrp">    -10.82750492 </i>
    <i name="e_0_energy">    -10.82750492 </i>
   </energy>
  </scstep>
  <scstep>
   <time name="dav">    0.53    0.53</time>
   <time name="total">    0.82    0.83</time>
   <energy>
    <i name="alphaZ">      3.29317992 </i>
    <i name="ewald">   -226.94489173 </i>
    <i name="hartreedc">    -15.23167560 </i>
    <i name="XCdc">    -18.05406374 </i>
    <i name="pawpsdc">    830.83438266 </i>
    <i name="pawaedc">   -795.85456771 </i>
    <i name="eentropy">      0.00000000 </i>
    <i name="bandstr">      4.99690581 </i>
    <i name="atom">    206.13322186 </i>
    <i name="e_fr_energy">    -10.82750853 </i>
    <i name="e_wo_entrp">    -10.82750853 </i>
    <i name="e_0_energy">    -10.82750853 </i>
   </energy>
  </scstep>
  <structure>
   <crystal>
    <varray name="basis" >
     <v>       3.34889800       0.00000000       1.93348700 </v>
     <v>       1.11629900       3.15737200       1.93348700 </v>
     <v>       0.00000000       0.00000000       3.86697500 </v>
    </varray>
    <i name="volume">     40.88829843 </i>
    <varray name="rec_basis" >
     <v>       0.29860569      -0.10557300       0.00000000 </v>
     <v>       0.00000000       0.31671909       0.00000000 </v>
     <v>      -0.14930281      -0.10557302       0.25860007 </v>
    </varray>
   </crystal>
   <varray name="positions" >
    <v>       0.25000000       0.25000000       0.25000000 </v>
    <v>       0.00000000       0.00000000       0.00000000 </v>
   </varray>
  </structure>
  <varray name="forces" >
   <v>       0.00000000       0.00000000       0.00000000 </v>
   <v>      -0.00000000      -0.00000000      -0.00000000 </v>
  </varray>
  <varray name="stress" >
   <v>       0.54011554      -0.00000006      -0.00000008 </v>
   <v>      -0.00000006       0.54011577      -0.00000006 </v>
   <v>      -0.00000008      -0.00000006       0.54011573 </v>
  </varray>
  <energy>
   <i name="e_fr_energy">    -10.82750853 </i>
   <i name="e_wo_entrp">    -10.82750853 </i>
   <i name="e_0_energy">    -10.82750853 </i>
  </energy>
  <time name="totalsc">   14.44   14.55</time>
  <eigenvalues>
   <array>
    <dimension dim="1">band</dimension>
    <dimension dim="2">kpoint</dimension>
    <dimension dim="3">spin</dimension>
    <field>eigene</field>
    <field>occ</field>
    <set>
     <set comment="spin 1">
      <set comment="kpoint 1">
       <r>   -6.1923    1.0000 </r>
       <r>    5.6242    1.0000 </r>
       <r>    5.6242    1.0000 </r>
       <r>    5.6242    1.0000 </r>
       <r>    8.1777    0.0000 </r>
       <r>    8.1777    0.0000 </r>
       <r>    8.1777    0.0000 </r>
       <r>    8.7578    0.0000 </r>
       <r>   13.3293    0.0000 </r>
      </set>
      <set comment="kpoint 2">
       <r>   -5.8376    1.0000 </r>
       <r>    3.2601    1.0000 </r>
       <r>    5.1830    1.0000 </r>
       <r>    5.1830    1.0000 </r>
       <r>    7.9078    0.0000 </r>
       <r>    8.8135    0.0000 </r>
       <r>    8.8135    0.0000 </r>
       <r>   10.9024    0.0000 </r>
       <r>   12.7050    0.0000 </r>
      </set>
      <set comment="kpoint 3">
       <r>   -4.8420    1.0000 </r>
       <r>    0.3531    1.0000 </r>
       <r>    4.6410    1.0000 </r>
       <r>    4.6410    1.0000 </r>
       <r>    7.3149    0.0000 </r>
       <r>    9.1241    0.0000 </r>
       <r>    9.1241    0.0000 </r>
       <r>   13.4057    0.0000 </r>
       <r>   13.5753    0.0000 </r>
      </set>
      <set comment="kpoint 4">
       <r>   -3.9130    1.0000 </r>
       <r>   -1.2465    1.0000 </r>
       <r>    4.4451    1.0000 </r>
       <r>    4.4451    1.0000 </r>
       <r>    7.0890    0.0000 </r>
       <r>    8.9698    0.0000 </r>
       <r>    8.9698    0.0000 </r>
       <r>   13.3227    0.0000 </r>
       <r>   16.1165    0.0000 </r>
      </set>
      <set comment="kpoint 5">
       <r>   -5.7168    1.0000 </r>
       <r>    3.5699    1.0000 </r>
       <r>    4.4583    1.0000 </r>
       <r>    4.4583    1.0000 </r>
       <r>    7.3354    0.0000 </r>
       <r>    9.8332    0.0000 </r>
       <r>    9.9236    0.0000 </r>
       <r>    9.9236    0.0000 </r>
       <r>   12.1317    0.0000 </r>
      </set>
      <set comment="kpoint 6">
       <r>   -4.9167    1.0000 </r>
       <r>    1.2203    1.0000 </r>
       <r>    3.6625    1.0000 </r>
       <r>    3.9143    1.0000 </r>
       <r>    7.5899    0.0000 </r>
       <r>    9.6288    0.0000 </r>
       <r>   10.1228    0.0000 </r>
       <r>   10.6551    0.0000 </r>
       <r>   14.6152    0.0000 </r>
      </set>
      <set comment="kpoint 7">
       <r>   -3.7534    1.0000 </r>
       <r>   -0.9013    1.0000 </r>
       <r>    2.8913    1.0000 </r>
       <r>    3.8824    1.0000 </r>
       <r>    7.6608    0.0000 </r>
       <r>    9.6837    0.0000 </r>
       <r>   10.2254    0.0000 </r>
       <r>   11.9864    0.0000 </r>
       <r>   14.9713    0.0000 </r>
      </set>
      <set comment="kpoint 8">
       <r>   -4.1282    1.0000 </r>
       <r>   -0.3165    1.0000 </r>
       <r>    2.6308    1.0000 </r>
       <r>    4.3504    1.0000 </r>
       <r>    8.0472    0.0000 </r>
       <r>    9.7047    0.0000 </r>
       <r>    9.8350    0.0000 </r>
       <r>   12.8174    0.0000 </r>
       <r>   12.9275    0.0000 </r>
      </set>
      <set comment="kpoint 9">
       <r>   -5.2602    1.0000 </r>
       <r>    1.9264    1.0000 </r>
       <r>    3.2653    1.0000 </r>
       <r>    5.0672    1.0000 </r>
       <r>    8.6003    0.0000 </r>
       <r>    9.1581    0.0000 </r>
       <r>    9.4340    0.0000 </r>
       <r>   11.2046    0.0000 </r>
       <r>   11.7419    0.0000 </r>
      </set>
      <set comment="kpoint 10">
       <r>   -4.3222    1.0000 </r>
       <r>    0.6334    1.0000 </r>
       <r>    3.2557    1.0000 </r>
       <r>    3.2557    1.0000 </r>
       <r>    6.3791    0.0000 </r>
       <r>    7.6418    0.0000 </r>
       <r>   12.7956    0.0000 </r>
       <r>   12.7956    0.0000 </r>
       <r>   15.2368    0.0000 </r>
      </set>
      <set comment="kpoint 11">
       <r>   -3.1819    1.0000 </r>
       <r>   -0.8941    1.0000 </r>
       <r>    2.0726    1.0000 </r>
       <r>    3.1209    1.0000 </r>
       <r>    6.7167   -0.0000 </r>
       <r>    8.3435   -0.0000 </r>
       <r>   12.9899    0.0000 </r>
       <r>   13.0000    0.0000 </r>
       <r>   16.1256    0.0000 </r>
      </set>
      <set comment="kpoint 12">
       <r>   -2.9949    1.0000 </r>
       <r>   -1.0903    1.0000 </r>
       <r>    1.3110    1.0000 </r>
       <r>    3.5540    1.0000 </r>
       <r>    7.2084    0.0000 </r>
       <r>   11.3993    0.0000 </r>
       <r>   12.0290    0.0000 </r>
       <r>   12.5936    0.0000 </r>
       <r>   12.9181    0.0000 </r>
      </set>
      <set comment="kpoint 13">
       <r>   -2.1232    1.0000 </r>
       <r>   -2.1232    1.0000 </r>
       <r>    2.8284    1.0000 </r>
       <r>    2.8284    1.0000 </r>
       <r>    6.3720    0.0000 </r>
       <r>    6.3720    0.0000 </r>
       <r>   15.5592    0.0000 </r>
       <r>   15.5592    0.0000 </r>
       <r>   16.5301    0.0000 </r>
      </set>
      <set comment="kpoint 14">
       <r>   -3.9462    1.0000 </r>
       <r>    0.0156    1.0000 </r>
       <r>    2.1318    1.0000 </r>
       <r>    3.3793    1.0000 </r>
       <r>    8.4667    0.0000 </r>
       <r>    9.3407    0.0000 </r>
       <r>    9.7995    0.0000 </r>
       <r>   12.6059    0.0000 </r>
       <r>   14.5269    0.0000 </r>
      </set>
      <set comment="kpoint 15">
       <r>   -2.9857    1.0000 </r>
       <r>   -1.1567    1.0000 </r>
       <r>    1.6973    1.0000 </r>
       <r>    2.9253    1.0000 </r>
       <r>    8.9863    0.0000 </r>
       <r>    9.1397    0.0000 </r>
       <r>   11.6790    0.0000 </r>
       <r>   12.0611    0.0000 </r>
       <r>   13.0907    0.0000 </r>
      </set>
      <set comment="kpoint 16">
       <r>   -2.0099    1.0000 </r>
       <r>   -2.0099    1.0000 </r>
       <r>    2.0619    1.0000 </r>
       <r>    2.0619    1.0000 </r>
       <r>    8.3728   -0.0000 </r>
       <r>    8.3728   -0.0000 </r>
       <r>   12.3099    0.0000 </r>
       <r>   12.3099    0.0000 </r>
       <r>   16.0721    0.0000 </r>
      </set>
     </set>
     <set comment="spin 2">
      <set comment="kpoint 1">
       <r>   -6.1925    1.0000 </r>
       <r>    5.6238    1.0000 </r>
       <r>    5.6238    1.0000 </r>
       <r>    5.6238    1.0000 </r>
       <r>    8.1776    0.0000 </r>
       <r>    8.1776    0.0000 </r>
       <r>    8.1777    0.0000 </r>
       <r>    8.7576    0.0000 </r>
       <r>   13.3292    0.0000 </r>
      </set>
      <set comment="kpoint 2">
       <r>   -5.8378    1.0000 </r>
       <r>    3.2598    1.0000 </r>
       <r>    5.1826    1.0000 </r>
       <r>    5.1826    1.0000 </r>
       <r>    7.9078    0.0000 </r>
       <r>    8.8134    0.0000 </r>
       <r>    8.8134    0.0000 </r>
       <r>   10.9022    0.0000 </r>
       <r>   12.7050    0.0000 </r>
      </set>
      <set comment="kpoint 3">
       <r>   -4.8422    1.0000 </r>
       <r>    0.3529    1.0000 </r>
       <r>    4.6407    1.0000 </r>
       <r>    4.6407    1.0000 </r>
       <r>    7.3149    0.0000 </r>
       <r>    9.1241    0.0000 </r>
       <r>    9.1241    0.0000 </r>
       <r>   13.4061    0.0000 </r>
       <r>   13.5753    0.0000 </r>
      </set>
      <set comment="kpoint 4">
       <r>   -3.9133    1.0000 </r>
       <r>   -1.2466    1.0000 </r>
       <r>    4.4447    1.0000 </r>
       <r>    4.4447    1.0000 </r>
       <r>    7.0890    0.0000 </r>
       <r>    8.9698    0.0000 </r>
       <r>    8.9698    0.0000 </r>
       <r>   13.3235    0.0000 </r>
       <r>   16.1164    0.0000 </r>
      </set>
      <set comment="kpoint 5">
       <r>   -5.7170    1.0000 </r>
       <r>    3.5695    1.0000 </r>
       <r>    4.4580    1.0000 </r>
       <r>    4.4580    1.0000 </r>
       <r>    7.3355    0.0000 </r>
       <r>    9.8332    0.0000 </r>
       <r>    9.9234    0.0000 </r>
       <r>    9.9234    0.0000 </r>
       <r>   12.1317    0.0000 </r>
      </set>
      <set comment="kpoint 6">
       <r>   -4.9169    1.0000 </r>
       <r>    1.2200    1.0000 </r>
       <r>    3.6623    1.0000 </r>
       <r>    3.9140    1.0000 </r>
       <r>    7.5900    0.0000 </r>
       <r>    9.6287    0.0000 </r>
       <r>   10.1229    0.0000 </r>
       <r>   10.6550    0.0000 </r>
       <r>   14.5858    0.0000 </r>
      </set>
      <set comment="kpoint 7">
       <r>   -3.7537    1.0000 </r>
       <r>   -0.9015    1.0000 </r>
       <r>    2.8911    1.0000 </r>
       <r>    3.8821    1.0000 </r>
       <r>    7.6609    0.0000 </r>
       <r>    9.6837    0.0000 </r>
       <r>   10.2254    0.0000 </r>
       <r>   11.9865    0.0000 </r>
       <r>   14.9717    0.0000 </r>
      </set>
      <set comment="kpoint 8">
       <r>   -4.1285    1.0000 </r>
       <r>   -0.3167    1.0000 </r>
       <r>    2.6306    1.0000 </r>
       <r>    4.3501    1.0000 </r>
       <r>    8.0473    0.0000 </r>
       <r>    9.7047    0.0000 </r>
       <r>    9.8349    0.0000 </r>
       <r>   12.8175    0.0000 </r>
       <r>   12.9275    0.0000 </r>
      </set>
      <set comment="kpoint 9">
       <r>   -5.2604    1.0000 </r>
       <r>    1.9261    1.0000 </r>
       <r>    3.2651    1.0000 </r>
       <r>    5.0668    1.0000 </r>
       <r>    8.6002    0.0000 </r>
       <r>    9.1580    0.0000 </r>
       <r>    9.4339    0.0000 </r>
       <r>   11.2046    0.0000 </r>
       <r>   11.7420    0.0000 </r>
      </set>
      <set comment="kpoint 10">
       <r>   -4.3224    1.0000 </r>
       <r>    0.6330    1.0000 </r>
       <r>    3.2554    1.0000 </r>
       <r>    3.2554    1.0000 </r>
       <r>    6.3794    0.0000 </r>
       <r>    7.6422    0.0000 </r>
       <r>   12.7954    0.0000 </r>
       <r>   12.7954    0.0000 </r>
       <r>   15.2372    0.0000 </r>
      </set>
      <set comment="kpoint 11">
       <r>   -3.1821    1.0000 </r>
       <r>   -0.8944    1.0000 </r>
       <r>    2.0725    1.0000 </r>
       <r>    3.1207    1.0000 </r>
       <r>    6.7169    0.0000 </r>
       <r>    8.3437    0.0000 </r>
       <r>   12.9898    0.0000 </r>
       <r>   12.9999    0.0000 </r>
       <r>   16.1061    0.0000 </r>
      </set>
      <set comment="kpoint 12">
       <r>   -2.9952    1.0000 </r>
       <r>   -1.0906    1.0000 </r>
       <r>    1.3110    1.0000 </r>
       <r>    3.5537    1.0000 </r>
       <r>    7.2087    0.0000 </r>
       <r>   11.3994    0.0000 </r>
       <r>   12.0289    0.0000 </r>
       <r>   12.5935    0.0000 </r>
       <r>   12.9181    0.0000 </r>
      </set>
      <set comment="kpoint 13">
       <r>   -2.1235    1.0000 </r>
       <r>   -2.1235    1.0000 </r>
       <r>    2.8281    1.0000 </r>
       <r>    2.8281    1.0000 </r>
       <r>    6.3723    0.0000 </r>
       <r>    6.3723    0.0000 </r>
       <r>   15.5591    0.0000 </r>
       <r>   15.5591    0.0000 </r>
       <r>   16.5299    0.0000 </r>
      </set>
      <set comment="kpoint 14">
       <r>   -3.9465    1.0000 </r>
       <r>    0.0153    1.0000 </r>
       <r>    2.1318    1.0000 </r>
       <r>    3.3791    1.0000 </r>
       <r>    8.4667    0.0000 </r>
       <r>    9.3409    0.0000 </r>
       <r>    9.7995    0.0000 </r>
       <r>   12.6058    0.0000 </r>
       <r>   14.5267    0.0000 </r>
      </set>
      <set comment="kpoint 15">
       <r>   -2.9860    1.0000 </r>
       <r>   -1.1570    1.0000 </r>
       <r>    1.6973    1.0000 </r>
       <r>    2.9251    1.0000 </r>
       <r>    8.9865    0.0000 </r>
       <r>    9.1397    0.0000 </r>
       <r>   11.6790    0.0000 </r>
       <r>   12.0610    0.0000 </r>
       <r>   13.0905    0.0000 </r>
      </set>
      <set comment="kpoint 16">
       <r>   -2.0102    1.0000 </r>
       <r>   -2.0102    1.0000 </r>
       <r>    2.0618    1.0000 </r>
       <r>    2.0618    1.0000 </r>
       <r>    8.3730    0.0000 </r>
       <r>    8.3730    0.0000 </r>
       <r>   12.3098    0.0000 </r>
       <r>   12.3098    0.0000 </r>
       <r>   16.0719    0.0000 </r>
      </set>
     </set>
    </set>
   </array>
  </eigenvalues>
  <separator name="orbital magnetization" >
   <v name="MAGDIPOLOUT">      0.00000000      0.00000000      0.00000000</v>
  </separator>
  <dos>
   <i name="efermi">      6.37206699 </i>
   <total>
    <array>
     <dimension dim="1">gridpoints</dimension>
     <dimension dim="2">spin</dimension>
     <field>energy</field>
     <field>total</field>
     <field>integrated</field>
     <set>
      <set comment="spin 1">
       <r>    -7.3286     0.0000     0.0000 </r>
       <r>    -7.2453     0.0000     0.0000 </r>
       <r>    -7.1620     0.0000     0.0000 </r>
       <r>    -7.0787     0.0000     0.0000 </r>
       <r>    -6.9954     0.0000     0.0000 </r>
       <r>    -6.9121     0.0000     0.0000 </r>
       <r>    -6.8287     0.0000     0.0000 </r>
       <r>    -6.7454     0.0000     0.0000 </r>
       <r>    -6.6621     0.0000     0.0000 </r>
       <r>    -6.5788     0.0000     0.0000 </r>
       <r>    -6.4955     0.0000     0.0000 </r>
       <r>    -6.4122     0.0000     0.0000 </r>
       <r>    -6.3288     0.0000     0.0000 </r>
       <r>    -6.2455     0.0000     0.0000 </r>
       <r>    -6.1622     0.0008     0.0000 </r>
       <r>    -6.0789     0.0119     0.0005 </r>
       <r>    -5.9956     0.0359     0.0024 </r>
       <r>    -5.9123     0.0728     0.0068 </r>
       <r>    -5.8289     0.1140     0.0148 </r>
       <r>    -5.7456     0.1021     0.0236 </r>
       <r>    -5.6623     0.1119     0.0325 </r>
       <r>    -5.5790     0.1238     0.0423 </r>
       <r>    -5.4957     0.1362     0.0531 </r>
       <r>    -5.4124     0.1492     0.0650 </r>
       <r>    -5.3290     0.1628     0.0780 </r>
       <r>    -5.2457     0.1768     0.0922 </r>
       <r>    -5.1624     0.1894     0.1074 </r>
       <r>    -5.0791     0.1996     0.1237 </r>
       <r>    -4.9958     0.2072     0.1406 </r>
       <r>    -4.9125     0.2126     0.1581 </r>
       <r>    -4.8292     0.2222     0.1762 </r>
       <r>    -4.7458     0.2343     0.1952 </r>
       <r>    -4.6625     0.2471     0.2152 </r>
       <r>    -4.5792     0.2606     0.2364 </r>
       <r>    -4.4959     0.2749     0.2587 </r>
       <r>    -4.4126     0.2899     0.2822 </r>
       <r>    -4.3293     0.3056     0.3070 </r>
       <r>    -4.2459     0.3221     0.3332 </r>
       <r>    -4.1626     0.3393     0.3607 </r>
       <r>    -4.0793     0.3646     0.3898 </r>
       <r>    -3.9960     0.4295     0.4226 </r>
       <r>    -3.9127     0.5370     0.4626 </r>
       <r>    -3.8294     0.5643     0.5099 </r>
       <r>    -3.7460     0.4172     0.5512 </r>
       <r>    -3.6627     0.4115     0.5858 </r>
       <r>    -3.5794     0.4058     0.6198 </r>
       <r>    -3.4961     0.4000     0.6534 </r>
       <r>    -3.4128     0.3940     0.6865 </r>
       <r>    -3.3295     0.3880     0.7190 </r>
       <r>    -3.2461     0.3818     0.7511 </r>
       <r>    -3.1628     0.3856     0.7828 </r>
       <r>    -3.0795     0.3897     0.8154 </r>
       <r>    -2.9962     0.3397     0.8462 </r>
       <r>    -2.9129     0.3031     0.8728 </r>
       <r>    -2.8296     0.2713     0.8967 </r>
       <r>    -2.7462     0.2400     0.9180 </r>
       <r>    -2.6629     0.2093     0.9368 </r>
       <r>    -2.5796     0.1792     0.9529 </r>
       <r>    -2.4963     0.1497     0.9666 </r>
       <r>    -2.4130     0.1208     0.9779 </r>
       <r>    -2.3297     0.0924     0.9868 </r>
       <r>    -2.2464     0.0647     0.9933 </r>
       <r>    -2.1630     0.0375     0.9976 </r>
       <r>    -2.0797     0.0138     0.9996 </r>
       <r>    -1.9964     0.0126     1.0005 </r>
       <r>    -1.9131     0.0385     1.0026 </r>
       <r>    -1.8298     0.0654     1.0069 </r>
       <r>    -1.7465     0.0932     1.0135 </r>
       <r>    -1.6631     0.1221     1.0225 </r>
       <r>    -1.5798     0.1520     1.0339 </r>
       <r>    -1.4965     0.1828     1.0478 </r>
       <r>    -1.4132     0.2147     1.0644 </r>
       <r>    -1.3299     0.2475     1.0836 </r>
       <r>    -1.2466     0.2814     1.1056 </r>
       <r>    -1.1632     0.3247     1.1308 </r>
       <r>    -1.0799     0.5360     1.1637 </r>
       <r>    -0.9966     0.7629     1.2197 </r>
       <r>    -0.9133     0.7272     1.2836 </r>
       <r>    -0.8300     0.6178     1.3385 </r>
       <r>    -0.7467     0.5482     1.3871 </r>
       <r>    -0.6633     0.4866     1.4301 </r>
       <r>    -0.5800     0.4329     1.4684 </r>
       <r>    -0.4967     0.3872     1.5025 </r>
       <r>    -0.4134     0.3495     1.5331 </r>
       <r>    -0.3301     0.3197     1.5609 </r>
       <r>    -0.2468     0.2790     1.5859 </r>
       <r>    -0.1635     0.2448     1.6077 </r>
       <r>    -0.0801     0.2209     1.6270 </r>
       <r>     0.0032     0.2075     1.6448 </r>
       <r>     0.0865     0.2008     1.6618 </r>
       <r>     0.1698     0.1946     1.6782 </r>
       <r>     0.2531     0.1888     1.6942 </r>
       <r>     0.3364     0.1834     1.7097 </r>
       <r>     0.4198     0.1782     1.7248 </r>
       <r>     0.5031     0.1731     1.7394 </r>
       <r>     0.5864     0.1680     1.7536 </r>
       <r>     0.6697     0.1628     1.7674 </r>
       <r>     0.7530     0.1572     1.7807 </r>
       <r>     0.8363     0.1508     1.7936 </r>
       <r>     0.9197     0.1437     1.8058 </r>
       <r>     1.0030     0.1360     1.8175 </r>
       <r>     1.0863     0.1275     1.8285 </r>
       <r>     1.1696     0.1184     1.8387 </r>
       <r>     1.2529     0.1091     1.8482 </r>
       <r>     1.3362     0.1024     1.8570 </r>
       <r>     1.4196     0.1204     1.8660 </r>
       <r>     1.5029     0.1705     1.8779 </r>
       <r>     1.5862     0.2528     1.8953 </r>
       <r>     1.6695     0.3674     1.9209 </r>
       <r>     1.7528     0.5034     1.9573 </r>
       <r>     1.8361     0.6078     2.0038 </r>
       <r>     1.9195     0.6742     2.0575 </r>
       <r>     2.0028     0.7023     2.1151 </r>
       <r>     2.0861     1.1394     2.1850 </r>
       <r>     2.1694     0.5591     2.2405 </r>
       <r>     2.2527     0.5613     2.2871 </r>
       <r>     2.3360     0.5697     2.3342 </r>
       <r>     2.4193     0.5844     2.3822 </r>
       <r>     2.5027     0.6052     2.4317 </r>
       <r>     2.5860     0.6322     2.4832 </r>
       <r>     2.6693     0.6578     2.5371 </r>
       <r>     2.7526     0.6770     2.5927 </r>
       <r>     2.8359     0.6972     2.6499 </r>
       <r>     2.9192     0.7217     2.7089 </r>
       <r>     3.0026     0.7616     2.7707 </r>
       <r>     3.0859     0.8058     2.8359 </r>
       <r>     3.1692     0.8598     2.9053 </r>
       <r>     3.2525     0.8495     2.9771 </r>
       <r>     3.3358     0.8000     3.0456 </r>
       <r>     3.4191     0.7828     3.1114 </r>
       <r>     3.5025     0.7736     3.1762 </r>
       <r>     3.5858     0.7677     3.2404 </r>
       <r>     3.6691     0.7611     3.3042 </r>
       <r>     3.7524     0.7270     3.3662 </r>
       <r>     3.8357     0.6892     3.4252 </r>
       <r>     3.9190     0.6656     3.4812 </r>
       <r>     4.0024     0.6658     3.5368 </r>
       <r>     4.0857     0.6554     3.5919 </r>
       <r>     4.1690     0.6342     3.6457 </r>
       <r>     4.2523     0.6024     3.6973 </r>
       <r>     4.3356     0.5598     3.7458 </r>
       <r>     4.4189     0.4892     3.7898 </r>
       <r>     4.5023     0.3835     3.8261 </r>
       <r>     4.5856     0.3127     3.8548 </r>
       <r>     4.6689     0.2793     3.8793 </r>
       <r>     4.7522     0.2556     3.9015 </r>
       <r>     4.8355     0.2330     3.9219 </r>
       <r>     4.9188     0.2114     3.9404 </r>
       <r>     5.0021     0.1910     3.9571 </r>
       <r>     5.0855     0.1703     3.9722 </r>
       <r>     5.1688     0.1117     3.9844 </r>
       <r>     5.2521     0.0685     3.9915 </r>
       <r>     5.3354     0.0412     3.9960 </r>
       <r>     5.4187     0.0209     3.9986 </r>
       <r>     5.5020     0.0074     3.9997 </r>
       <r>     5.5854     0.0007     4.0000 </r>
       <r>     5.6687     0.0000     4.0000 </r>
       <r>     5.7520     0.0000     4.0000 </r>
       <r>     5.8353     0.0000     4.0000 </r>
       <r>     5.9186     0.0000     4.0000 </r>
       <r>     6.0019     0.0000     4.0000 </r>
       <r>     6.0853     0.0000     4.0000 </r>
       <r>     6.1686     0.0000     4.0000 </r>
       <r>     6.2519     0.0000     4.0000 </r>
       <r>     6.3352     0.0000     4.0000 </r>
       <r>     6.4185     0.0376     4.0008 </r>
       <r>     6.5018     0.0906     4.0064 </r>
       <r>     6.5852     0.1175     4.0152 </r>
       <r>     6.6685     0.1182     4.0252 </r>
       <r>     6.7518     0.1145     4.0345 </r>
       <r>     6.8351     0.1345     4.0449 </r>
       <r>     6.9184     0.1560     4.0570 </r>
       <r>     7.0017     0.1791     4.0709 </r>
       <r>     7.0850     0.2038     4.0869 </r>
       <r>     7.1684     0.2379     4.1051 </r>
       <r>     7.2517     0.2912     4.1270 </r>
       <r>     7.3350     0.3653     4.1542 </r>
       <r>     7.4183     0.4710     4.1888 </r>
       <r>     7.5016     0.6159     4.2338 </r>
       <r>     7.5849     0.7999     4.2925 </r>
       <r>     7.6683     0.9320     4.3658 </r>
       <r>     7.7516     0.9511     4.4444 </r>
       <r>     7.8349     0.9571     4.5240 </r>
       <r>     7.9182     0.9397     4.6034 </r>
       <r>     8.0015     0.8566     4.6781 </r>
       <r>     8.0848     0.7973     4.7468 </r>
       <r>     8.1682     0.7452     4.8111 </r>
       <r>     8.2515     0.6852     4.8708 </r>
       <r>     8.3348     0.6112     4.9249 </r>
       <r>     8.4181     0.5678     4.9740 </r>
       <r>     8.5014     0.5167     5.0191 </r>
       <r>     8.5847     0.4973     5.0611 </r>
       <r>     8.6681     0.5022     5.1028 </r>
       <r>     8.7514     0.4971     5.1445 </r>
       <r>     8.8347     0.4849     5.1853 </r>
       <r>     8.9180     0.4844     5.2257 </r>
       <r>     9.0013     0.5067     5.2664 </r>
       <r>     9.0846     0.6286     5.3133 </r>
       <r>     9.1680     0.7703     5.3721 </r>
       <r>     9.2513     0.9287     5.4422 </r>
       <r>     9.3346     1.1805     5.5294 </r>
       <r>     9.4179     1.4377     5.6392 </r>
       <r>     9.5012     1.5929     5.7661 </r>
       <r>     9.5845     1.6629     5.9023 </r>
       <r>     9.6678     1.4527     6.0382 </r>
       <r>     9.7512     0.7669     6.1141 </r>
       <r>     9.8345     0.7330     6.1798 </r>
       <r>     9.9178     0.7547     6.2422 </r>
       <r>    10.0011     0.7017     6.3034 </r>
       <r>    10.0844     0.5612     6.3567 </r>
       <r>    10.1677     0.4055     6.3959 </r>
       <r>    10.2511     0.3729     6.4277 </r>
       <r>    10.3344     0.3736     6.4588 </r>
       <r>    10.4177     0.3789     6.4901 </r>
       <r>    10.5010     0.3885     6.5220 </r>
       <r>    10.5843     0.4027     6.5550 </r>
       <r>    10.6676     0.4184     6.5892 </r>
       <r>    10.7510     0.4163     6.6241 </r>
       <r>    10.8343     0.4078     6.6584 </r>
       <r>    10.9176     0.3884     6.6918 </r>
       <r>    11.0009     0.3535     6.7226 </r>
       <r>    11.0842     0.3317     6.7511 </r>
       <r>    11.1675     0.3228     6.7782 </r>
       <r>    11.2509     0.3251     6.8052 </r>
       <r>    11.3342     0.3300     6.8325 </r>
       <r>    11.4175     0.3362     6.8602 </r>
       <r>    11.5008     0.3432     6.8885 </r>
       <r>    11.5841     0.3506     6.9174 </r>
       <r>    11.6674     0.3585     6.9469 </r>
       <r>    11.7507     0.3991     6.9784 </r>
       <r>    11.8341     0.4356     7.0132 </r>
       <r>    11.9174     0.4638     7.0507 </r>
       <r>    12.0007     0.5343     7.0906 </r>
       <r>    12.0840     0.8025     7.1452 </r>
       <r>    12.1673     1.1043     7.2259 </r>
       <r>    12.2506     1.2129     7.3238 </r>
       <r>    12.3340     1.1832     7.4233 </r>
       <r>    12.4173     1.1892     7.5225 </r>
       <r>    12.5006     1.1442     7.6200 </r>
       <r>    12.5839     1.0483     7.7117 </r>
       <r>    12.6672     0.9493     7.7950 </r>
       <r>    12.7505     0.7848     7.8678 </r>
       <r>    12.8339     0.5834     7.9240 </r>
       <r>    12.9172     0.4885     7.9690 </r>
       <r>    13.0005     0.4678     8.0104 </r>
       <r>    13.0838     0.5144     8.0515 </r>
       <r>    13.1671     0.4921     8.0936 </r>
       <r>    13.2504     0.4646     8.1335 </r>
       <r>    13.3338     0.4363     8.1710 </r>
       <r>    13.4171     0.4221     8.2066 </r>
       <r>    13.5004     0.4165     8.2415 </r>
       <r>    13.5837     0.4106     8.2760 </r>
       <r>    13.6670     0.4045     8.3100 </r>
       <r>    13.7503     0.3980     8.3434 </r>
       <r>    13.8337     0.3911     8.3763 </r>
       <r>    13.9170     0.3839     8.4085 </r>
       <r>    14.0003     0.3764     8.4402 </r>
       <r>    14.0836     0.3685     8.4713 </r>
       <r>    14.1669     0.3603     8.5016 </r>
       <r>    14.2502     0.3517     8.5313 </r>
       <r>    14.3335     0.3428     8.5602 </r>
       <r>    14.4169     0.3336     8.5884 </r>
       <r>    14.5002     0.3240     8.6158 </r>
       <r>    14.5835     0.3424     8.6429 </r>
       <r>    14.6668     0.3681     8.6736 </r>
       <r>    14.7501     0.3488     8.7035 </r>
       <r>    14.8334     0.3276     8.7317 </r>
       <r>    14.9168     0.3044     8.7580 </r>
       <r>    15.0001     0.2786     8.7823 </r>
       <r>    15.0834     0.2520     8.8044 </r>
       <r>    15.1667     0.2277     8.8244 </r>
       <r>    15.2500     0.2055     8.8424 </r>
       <r>    15.3333     0.1855     8.8587 </r>
       <r>    15.4167     0.1676     8.8734 </r>
       <r>    15.5000     0.1518     8.8867 </r>
       <r>    15.5833     0.1380     8.8987 </r>
       <r>    15.6666     0.1261     8.9097 </r>
       <r>    15.7499     0.1161     8.9198 </r>
       <r>    15.8332     0.1080     8.9291 </r>
       <r>    15.9166     0.1017     8.9378 </r>
       <r>    15.9999     0.0972     8.9461 </r>
       <r>    16.0832     0.1029     8.9541 </r>
       <r>    16.1665     0.2307     8.9720 </r>
       <r>    16.2498     0.1371     8.9872 </r>
       <r>    16.3331     0.0677     8.9956 </r>
       <r>    16.4165     0.0225     8.9991 </r>
       <r>    16.4998     0.0016     9.0000 </r>
       <r>    16.5831     0.0000     9.0000 </r>
       <r>    16.6664     0.0000     9.0000 </r>
       <r>    16.7497     0.0000     9.0000 </r>
       <r>    16.8330     0.0000     9.0000 </r>
       <r>    16.9163     0.0000     9.0000 </r>
       <r>    16.9997     0.0000     9.0000 </r>
       <r>    17.0830     0.0000     9.0000 </r>
       <r>    17.1663     0.0000     9.0000 </r>
       <r>    17.2496     0.0000     9.0000 </r>
       <r>    17.3329     0.0000     9.0000 </r>
       <r>    17.4162     0.0000     9.0000 </r>
       <r>    17.4996     0.0000     9.0000 </r>
       <r>    17.5829     0.0000     9.0000 </r>
       <r>    17.6662     0.0000     9.0000 </r>
      </set>
      <set comment="spin 2">
       <r>    -7.3286     0.0000     0.0000 </r>
       <r>    -7.2453     0.0000     0.0000 </r>
       <r>    -7.1620     0.0000     0.0000 </r>
       <r>    -7.0787     0.0000     0.0000 </r>
       <r>    -6.9954     0.0000     0.0000 </r>
       <r>    -6.9121     0.0000     0.0000 </r>
       <r>    -6.8287     0.0000     0.0000 </r>
       <r>    -6.7454     0.0000     0.0000 </r>
       <r>    -6.6621     0.0000     0.0000 </r>
       <r>    -6.5788     0.0000     0.0000 </r>
       <r>    -6.4955     0.0000     0.0000 </r>
       <r>    -6.4122     0.0000     0.0000 </r>
       <r>    -6.3288     0.0000     0.0000 </r>
       <r>    -6.2455     0.0000     0.0000 </r>
       <r>    -6.1622     0.0009     0.0000 </r>
       <r>    -6.0789     0.0120     0.0005 </r>
       <r>    -5.9956     0.0360     0.0024 </r>
       <r>    -5.9123     0.0729     0.0068 </r>
       <r>    -5.8289     0.1140     0.0148 </r>
       <r>    -5.7456     0.1021     0.0236 </r>
       <r>    -5.6623     0.1119     0.0325 </r>
       <r>    -5.5790     0.1238     0.0423 </r>
       <r>    -5.4957     0.1363     0.0532 </r>
       <r>    -5.4124     0.1493     0.0650 </r>
       <r>    -5.3290     0.1628     0.0780 </r>
       <r>    -5.2457     0.1769     0.0922 </r>
       <r>    -5.1624     0.1895     0.1075 </r>
       <r>    -5.0791     0.1996     0.1237 </r>
       <r>    -4.9958     0.2072     0.1407 </r>
       <r>    -4.9125     0.2126     0.1582 </r>
       <r>    -4.8292     0.2222     0.1762 </r>
       <r>    -4.7458     0.2343     0.1953 </r>
       <r>    -4.6625     0.2471     0.2153 </r>
       <r>    -4.5792     0.2607     0.2365 </r>
       <r>    -4.4959     0.2749     0.2588 </r>
       <r>    -4.4126     0.2899     0.2823 </r>
       <r>    -4.3293     0.3057     0.3071 </r>
       <r>    -4.2459     0.3221     0.3332 </r>
       <r>    -4.1626     0.3394     0.3608 </r>
       <r>    -4.0793     0.3647     0.3899 </r>
       <r>    -3.9960     0.4298     0.4227 </r>
       <r>    -3.9127     0.5375     0.4627 </r>
       <r>    -3.8294     0.5641     0.5100 </r>
       <r>    -3.7460     0.4172     0.5514 </r>
       <r>    -3.6627     0.4115     0.5859 </r>
       <r>    -3.5794     0.4058     0.6199 </r>
       <r>    -3.4961     0.3999     0.6535 </r>
       <r>    -3.4128     0.3940     0.6866 </r>
       <r>    -3.3295     0.3880     0.7191 </r>
       <r>    -3.2461     0.3818     0.7512 </r>
       <r>    -3.1628     0.3857     0.7829 </r>
       <r>    -3.0795     0.3896     0.8155 </r>
       <r>    -2.9962     0.3394     0.8463 </r>
       <r>    -2.9129     0.3030     0.8729 </r>
       <r>    -2.8296     0.2712     0.8968 </r>
       <r>    -2.7462     0.2399     0.9181 </r>
       <r>    -2.6629     0.2092     0.9368 </r>
       <r>    -2.5796     0.1791     0.9530 </r>
       <r>    -2.4963     0.1496     0.9667 </r>
       <r>    -2.4130     0.1207     0.9779 </r>
       <r>    -2.3297     0.0923     0.9868 </r>
       <r>    -2.2464     0.0646     0.9933 </r>
       <r>    -2.1630     0.0374     0.9976 </r>
       <r>    -2.0797     0.0137     0.9996 </r>
       <r>    -1.9964     0.0127     1.0005 </r>
       <r>    -1.9131     0.0386     1.0026 </r>
       <r>    -1.8298     0.0655     1.0069 </r>
       <r>    -1.7465     0.0933     1.0135 </r>
       <r>    -1.6631     0.1222     1.0225 </r>
       <r>    -1.5798     0.1521     1.0339 </r>
       <r>    -1.4965     0.1829     1.0479 </r>
       <r>    -1.4132     0.2148     1.0644 </r>
       <r>    -1.3299     0.2476     1.0837 </r>
       <r>    -1.2466     0.2815     1.1057 </r>
       <r>    -1.1632     0.3248     1.1309 </r>
       <r>    -1.0799     0.5371     1.1639 </r>
       <r>    -0.9966     0.7630     1.2199 </r>
       <r>    -0.9133     0.7266     1.2837 </r>
       <r>    -0.8300     0.6176     1.3387 </r>
       <r>    -0.7467     0.5480     1.3872 </r>
       <r>    -0.6633     0.4864     1.4302 </r>
       <r>    -0.5800     0.4328     1.4685 </r>
       <r>    -0.4967     0.3871     1.5026 </r>
       <r>    -0.4134     0.3494     1.5332 </r>
       <r>    -0.3301     0.3196     1.5610 </r>
       <r>    -0.2468     0.2789     1.5860 </r>
       <r>    -0.1635     0.2447     1.6077 </r>
       <r>    -0.0801     0.2209     1.6271 </r>
       <r>     0.0032     0.2075     1.6448 </r>
       <r>     0.0865     0.2008     1.6618 </r>
       <r>     0.1698     0.1946     1.6783 </r>
       <r>     0.2531     0.1888     1.6943 </r>
       <r>     0.3364     0.1834     1.7098 </r>
       <r>     0.4198     0.1782     1.7248 </r>
       <r>     0.5031     0.1730     1.7395 </r>
       <r>     0.5864     0.1680     1.7537 </r>
       <r>     0.6697     0.1628     1.7674 </r>
       <r>     0.7530     0.1571     1.7808 </r>
       <r>     0.8363     0.1508     1.7936 </r>
       <r>     0.9197     0.1437     1.8059 </r>
       <r>     1.0030     0.1359     1.8175 </r>
       <r>     1.0863     0.1275     1.8285 </r>
       <r>     1.1696     0.1183     1.8388 </r>
       <r>     1.2529     0.1091     1.8482 </r>
       <r>     1.3362     0.1024     1.8570 </r>
       <r>     1.4196     0.1203     1.8660 </r>
       <r>     1.5029     0.1705     1.8779 </r>
       <r>     1.5862     0.2529     1.8953 </r>
       <r>     1.6695     0.3675     1.9210 </r>
       <r>     1.7528     0.5035     1.9573 </r>
       <r>     1.8361     0.6079     2.0039 </r>
       <r>     1.9195     0.6743     2.0576 </r>
       <r>     2.0028     0.7023     2.1152 </r>
       <r>     2.0861     1.1376     2.1851 </r>
       <r>     2.1694     0.5591     2.2405 </r>
       <r>     2.2527     0.5614     2.2872 </r>
       <r>     2.3360     0.5698     2.3342 </r>
       <r>     2.4193     0.5844     2.3823 </r>
       <r>     2.5027     0.6053     2.4318 </r>
       <r>     2.5860     0.6323     2.4833 </r>
       <r>     2.6693     0.6579     2.5372 </r>
       <r>     2.7526     0.6771     2.5928 </r>
       <r>     2.8359     0.6974     2.6501 </r>
       <r>     2.9192     0.7219     2.7090 </r>
       <r>     3.0026     0.7618     2.7708 </r>
       <r>     3.0859     0.8060     2.8361 </r>
       <r>     3.1692     0.8599     2.9055 </r>
       <r>     3.2525     0.8494     2.9773 </r>
       <r>     3.3358     0.8000     3.0458 </r>
       <r>     3.4191     0.7828     3.1116 </r>
       <r>     3.5025     0.7736     3.1764 </r>
       <r>     3.5858     0.7678     3.2406 </r>
       <r>     3.6691     0.7610     3.3044 </r>
       <r>     3.7524     0.7269     3.3664 </r>
       <r>     3.8357     0.6892     3.4254 </r>
       <r>     3.9190     0.6657     3.4814 </r>
       <r>     4.0024     0.6659     3.5370 </r>
       <r>     4.0857     0.6554     3.5921 </r>
       <r>     4.1690     0.6342     3.6459 </r>
       <r>     4.2523     0.6023     3.6975 </r>
       <r>     4.3356     0.5596     3.7459 </r>
       <r>     4.4189     0.4888     3.7900 </r>
       <r>     4.5023     0.3832     3.8262 </r>
       <r>     4.5856     0.3125     3.8549 </r>
       <r>     4.6689     0.2792     3.8794 </r>
       <r>     4.7522     0.2555     3.9016 </r>
       <r>     4.8355     0.2329     3.9220 </r>
       <r>     4.9188     0.2113     3.9405 </r>
       <r>     5.0021     0.1909     3.9572 </r>
       <r>     5.0855     0.1702     3.9723 </r>
       <r>     5.1688     0.1114     3.9844 </r>
       <r>     5.2521     0.0683     3.9915 </r>
       <r>     5.3354     0.0411     3.9960 </r>
       <r>     5.4187     0.0208     3.9986 </r>
       <r>     5.5020     0.0073     3.9997 </r>
       <r>     5.5854     0.0007     4.0000 </r>
       <r>     5.6687     0.0000     4.0000 </r>
       <r>     5.7520     0.0000     4.0000 </r>
       <r>     5.8353     0.0000     4.0000 </r>
       <r>     5.9186     0.0000     4.0000 </r>
       <r>     6.0019     0.0000     4.0000 </r>
       <r>     6.0853     0.0000     4.0000 </r>
       <r>     6.1686     0.0000     4.0000 </r>
       <r>     6.2519     0.0000     4.0000 </r>
       <r>     6.3352     0.0000     4.0000 </r>
       <r>     6.4185     0.0373     4.0008 </r>
       <r>     6.5018     0.0905     4.0063 </r>
       <r>     6.5852     0.1174     4.0152 </r>
       <r>     6.6685     0.1182     4.0252 </r>
       <r>     6.7518     0.1145     4.0345 </r>
       <r>     6.8351     0.1344     4.0449 </r>
       <r>     6.9184     0.1559     4.0569 </r>
       <r>     7.0017     0.1790     4.0709 </r>
       <r>     7.0850     0.2037     4.0868 </r>
       <r>     7.1684     0.2379     4.1051 </r>
       <r>     7.2517     0.2912     4.1270 </r>
       <r>     7.3350     0.3652     4.1542 </r>
       <r>     7.4183     0.4709     4.1887 </r>
       <r>     7.5016     0.6157     4.2337 </r>
       <r>     7.5849     0.7997     4.2924 </r>
       <r>     7.6683     0.9320     4.3657 </r>
       <r>     7.7516     0.9512     4.4443 </r>
       <r>     7.8349     0.9572     4.5239 </r>
       <r>     7.9182     0.9397     4.6033 </r>
       <r>     8.0015     0.8567     4.6780 </r>
       <r>     8.0848     0.7974     4.7467 </r>
       <r>     8.1682     0.7453     4.8110 </r>
       <r>     8.2515     0.6853     4.8707 </r>
       <r>     8.3348     0.6112     4.9248 </r>
       <r>     8.4181     0.5677     4.9739 </r>
       <r>     8.5014     0.5167     5.0191 </r>
       <r>     8.5847     0.4973     5.0610 </r>
       <r>     8.6681     0.5022     5.1027 </r>
       <r>     8.7514     0.4972     5.1444 </r>
       <r>     8.8347     0.4851     5.1853 </r>
       <r>     8.9180     0.4846     5.2256 </r>
       <r>     9.0013     0.5068     5.2664 </r>
       <r>     9.0846     0.6287     5.3133 </r>
       <r>     9.1680     0.7703     5.3721 </r>
       <r>     9.2513     0.9288     5.4422 </r>
       <r>     9.3346     1.1803     5.5294 </r>
       <r>     9.4179     1.4377     5.6392 </r>
       <r>     9.5012     1.5930     5.7661 </r>
       <r>     9.5845     1.6631     5.9023 </r>
       <r>     9.6678     1.4528     6.0382 </r>
       <r>     9.7512     0.7670     6.1142 </r>
       <r>     9.8345     0.7327     6.1799 </r>
       <r>     9.9178     0.7547     6.2422 </r>
       <r>    10.0011     0.7017     6.3035 </r>
       <r>    10.0844     0.5612     6.3567 </r>
       <r>    10.1677     0.4055     6.3959 </r>
       <r>    10.2511     0.3729     6.4277 </r>
       <r>    10.3344     0.3737     6.4588 </r>
       <r>    10.4177     0.3789     6.4901 </r>
       <r>    10.5010     0.3886     6.5221 </r>
       <r>    10.5843     0.4027     6.5550 </r>
       <r>    10.6676     0.4184     6.5893 </r>
       <r>    10.7510     0.4163     6.6241 </r>
       <r>    10.8343     0.4078     6.6585 </r>
       <r>    10.9176     0.3883     6.6918 </r>
       <r>    11.0009     0.3535     6.7226 </r>
       <r>    11.0842     0.3317     6.7511 </r>
       <r>    11.1675     0.3228     6.7783 </r>
       <r>    11.2509     0.3251     6.8052 </r>
       <r>    11.3342     0.3300     6.8325 </r>
       <r>    11.4175     0.3362     6.8602 </r>
       <r>    11.5008     0.3432     6.8885 </r>
       <r>    11.5841     0.3506     6.9174 </r>
       <r>    11.6674     0.3585     6.9470 </r>
       <r>    11.7507     0.3991     6.9784 </r>
       <r>    11.8341     0.4357     7.0132 </r>
       <r>    11.9174     0.4638     7.0508 </r>
       <r>    12.0007     0.5343     7.0907 </r>
       <r>    12.0840     0.8029     7.1452 </r>
       <r>    12.1673     1.1048     7.2260 </r>
       <r>    12.2506     1.2135     7.3239 </r>
       <r>    12.3340     1.1839     7.4235 </r>
       <r>    12.4173     1.1899     7.5227 </r>
       <r>    12.5006     1.1449     7.6203 </r>
       <r>    12.5839     1.0491     7.7121 </r>
       <r>    12.6672     0.9500     7.7954 </r>
       <r>    12.7505     0.7856     7.8683 </r>
       <r>    12.8339     0.5843     7.9246 </r>
       <r>    12.9172     0.4893     7.9697 </r>
       <r>    13.0005     0.4690     8.0110 </r>
       <r>    13.0838     0.5156     8.0523 </r>
       <r>    13.1671     0.4933     8.0945 </r>
       <r>    13.2504     0.4658     8.1345 </r>
       <r>    13.3338     0.4375     8.1721 </r>
       <r>    13.4171     0.4232     8.2078 </r>
       <r>    13.5004     0.4175     8.2428 </r>
       <r>    13.5837     0.4115     8.2773 </r>
       <r>    13.6670     0.4053     8.3114 </r>
       <r>    13.7503     0.3987     8.3449 </r>
       <r>    13.8337     0.3918     8.3778 </r>
       <r>    13.9170     0.3845     8.4102 </r>
       <r>    14.0003     0.3769     8.4419 </r>
       <r>    14.0836     0.3690     8.4730 </r>
       <r>    14.1669     0.3607     8.5034 </r>
       <r>    14.2502     0.3520     8.5330 </r>
       <r>    14.3335     0.3431     8.5620 </r>
       <r>    14.4169     0.3337     8.5902 </r>
       <r>    14.5002     0.3240     8.6176 </r>
       <r>    14.5835     0.3746     8.6453 </r>
       <r>    14.6668     0.3635     8.6763 </r>
       <r>    14.7501     0.3452     8.7058 </r>
       <r>    14.8334     0.3249     8.7338 </r>
       <r>    14.9168     0.3024     8.7599 </r>
       <r>    15.0001     0.2771     8.7841 </r>
       <r>    15.0834     0.2509     8.8061 </r>
       <r>    15.1667     0.2268     8.8260 </r>
       <r>    15.2500     0.2047     8.8439 </r>
       <r>    15.3333     0.1847     8.8601 </r>
       <r>    15.4167     0.1668     8.8748 </r>
       <r>    15.5000     0.1511     8.8880 </r>
       <r>    15.5833     0.1374     8.9000 </r>
       <r>    15.6666     0.1257     8.9109 </r>
       <r>    15.7499     0.1158     8.9210 </r>
       <r>    15.8332     0.1078     8.9303 </r>
       <r>    15.9166     0.1018     8.9390 </r>
       <r>    15.9999     0.0975     8.9473 </r>
       <r>    16.0832     0.1161     8.9554 </r>
       <r>    16.1665     0.2100     8.9746 </r>
       <r>    16.2498     0.1247     8.9884 </r>
       <r>    16.3331     0.0615     8.9960 </r>
       <r>    16.4165     0.0205     8.9992 </r>
       <r>    16.4998     0.0014     9.0000 </r>
       <r>    16.5831     0.0000     9.0000 </r>
       <r>    16.6664     0.0000     9.0000 </r>
       <r>    16.7497     0.0000     9.0000 </r>
       <r>    16.8330     0.0000     9.0000 </r>
       <r>    16.9163     0.0000     9.0000 </r>
       <r>    16.9997     0.0000     9.0000 </r>
       <r>    17.0830     0.0000     9.0000 </r>
       <r>    17.1663     0.0000     9.0000 </r>
       <r>    17.2496     0.0000     9.0000 </r>
       <r>    17.3329     0.0000     9.0000 </r>
       <r>    17.4162     0.0000     9.0000 </r>
       <r>    17.4996     0.0000     9.0000 </r>
       <r>    17.5829     0.0000     9.0000 </r>
       <r>    17.6662     0.0000     9.0000 </r>
      </set>
     </set>
    </array>
   </total>
   <partial>
    <array>
     <dimension dim="1">gridpoints</dimension>
     <dimension dim="2">spin</dimension>
     <dimension dim="3">ion</dimension>
     <field>energy</field>
     <field>    s</field>
     <field>   py</field>
     <field>   pz</field>
     <field>   px</field>
     <field>  dxy</field>
     <field>  dyz</field>
     <field>  dz2</field>
     <field>  dxz</field>
     <field>x2-y2</field>
     <set>
      <set comment="ion 1">
       <set comment="spin 1">
        <r>    -7.3286     0.0000     0.0000     0.0000     0.0000     0.0000     0.0000     0.0000     0.0000     0.0000 </r>
        <r>    -7.2453     0.0000     0.0000     0.0000     0.0000     0.0000     0.0000     0.0000     0.0000     0.0000 </r>
        <r>    -7.1620     0.0000     0.0000     0.0000     0.0000     0.0000     0.0000     0.0000     0.0000     0.0000 </r>
        <r>    -7.0787     0.0000     0.0000     0.0000     0.0000     0.0000     0.0000     0.0000     0.0000     0.0000 </r>
        <r>    -6.9954     0.0000     0.0000     0.0000     0.0000     0.0000     0.0000     0.0000     0.0000     0.0000 </r>
        <r>    -6.9121     0.0000     0.0000     0.0000     0.0000     0.0000     0.0000     0.0000     0.0000     0.0000 </r>
        <r>    -6.8287     0.0000     0.0000     0.0000     0.0000     0.0000     0.0000     0.0000     0.0000     0.0000 </r>
        <r>    -6.7454     0.0000     0.0000     0.0000     0.0000     0.0000     0.0000     0.0000     0.0000     0.0000 </r>
        <r>    -6.6621     0.0000     0.0000     0.0000     0.0000     0.0000     0.0000     0.0000     0.0000     0.0000 </r>
        <r>    -6.5788     0.0000     0.0000     0.0000     0.0000     0.0000     0.0000     0.0000     0.0000     0.0000 </r>
        <r>    -6.4955     0.0000     0.0000     0.0000     0.0000     0.0000     0.0000     0.0000     0.0000     0.0000 </r>
        <r>    -6.4122     0.0000     0.0000     0.0000     0.0000     0.0000     0.0000     0.0000     0.0000     0.0000 </r>
        <r>    -6.3288     0.0000     0.0000     0.0000     0.0000     0.0000     0.0000     0.0000     0.0000     0.0000 </r>
        <r>    -6.2455     0.0000     0.0000     0.0000     0.0000     0.0000     0.0000     0.0000     0.0000     0.0000 </r>
        <r>    -6.1622     0.0002     0.0000     0.0000     0.0000     0.0000     0.0000     0.0000     0.0000     0.0000 </r>
        <r>    -6.0789     0.0025     0.0000     0.0000     0.0000     0.0000     0.0000     0.0000     0.0000     0.0000 </r>
        <r>    -5.9956     0.0076     0.0000     0.0000     0.0000     0.0000     0.0000     0.0000     0.0000     0.0000 </r>
        <r>    -5.9123     0.0153     0.0001     0.0001     0.0001     0.0000     0.0000     0.0000     0.0000     0.0000 </r>
        <r>    -5.8289     0.0240     0.0001     0.0001     0.0001     0.0000     0.0000     0.0000     0.0000     0.0000 </r>
        <r>    -5.7456     0.0214     0.0002     0.0002     0.0002     0.0000     0.0000     0.0000     0.0000     0.0000 </r>
        <r>    -5.6623     0.0234     0.0003     0.0003     0.0003     0.0000     0.0000     0.0000     0.0000     0.0000 </r>
        <r>    -5.5790     0.0259     0.0003     0.0003     0.0003     0.0000     0.0000     0.0000     0.0000     0.0000 </r>
        <r>    -5.4957     0.0285     0.0004     0.0004     0.0004     0.0000     0.0000     0.0000     0.0000     0.0000 </r>
        <r>    -5.4124     0.0312     0.0004     0.0004     0.0004     0.0000     0.0000     0.0000     0.0000     0.0000 </r>
        <r>    -5.3290     0.0340     0.0005     0.0005     0.0005     0.0000     0.0000     0.0000     0.0000     0.0000 </r>
        <r>    -5.2457     0.0369     0.0006     0.0006     0.0006     0.0000     0.0000     0.0000     0.0000     0.0000 </r>
        <r>    -5.1624     0.0395     0.0006     0.0006     0.0006     0.0000     0.0000     0.0000     0.0000     0.0000 </r>
        <r>    -5.0791     0.0416     0.0007     0.0007     0.0007     0.0000     0.0000     0.0000     0.0000     0.0000 </r>
        <r>    -4.9958     0.0432     0.0008     0.0008     0.0008     0.0000     0.0000     0.0000     0.0000     0.0000 </r>
        <r>    -4.9125     0.0442     0.0009     0.0009     0.0009     0.0000     0.0000     0.0000     0.0000     0.0000 </r>
        <r>    -4.8292     0.0463     0.0011     0.0011     0.0011     0.0000     0.0000     0.0000     0.0000     0.0000 </r>
        <r>    -4.7458     0.0488     0.0012     0.0012     0.0012     0.0000     0.0000     0.0000     0.0000     0.0000 </r>
        <r>    -4.6625     0.0515     0.0013     0.0013     0.0013     0.0000     0.0000     0.0000     0.0000     0.0000 </r>
        <r>    -4.5792     0.0544     0.0014     0.0014     0.0014     0.0000     0.0000     0.0000     0.0000     0.0000 </r>
        <r>    -4.4959     0.0574     0.0015     0.0015     0.0015     0.0000     0.0000     0.0000     0.0000     0.0000 </r>
        <r>    -4.4126     0.0606     0.0016     0.0016     0.0016     0.0000     0.0000     0.0000     0.0000     0.0000 </r>
        <r>    -4.3293     0.0640     0.0017     0.0017     0.0017     0.0000     0.0000     0.0000     0.0000     0.0000 </r>
        <r>    -4.2459     0.0675     0.0019     0.0019     0.0019     0.0000     0.0000     0.0000     0.0000     0.0000 </r>
        <r>    -4.1626     0.0712     0.0020     0.0020     0.0020     0.0000     0.0000     0.0000     0.0000     0.0000 </r>
        <r>    -4.0793     0.0766     0.0022     0.0022     0.0022     0.0000     0.0000     0.0000     0.0000     0.0000 </r>
        <r>    -3.9960     0.0907     0.0027     0.0027     0.0027     0.0000     0.0000     0.0000     0.0000     0.0000 </r>
        <r>    -3.9127     0.1140     0.0035     0.0035     0.0035     0.0000     0.0000     0.0000     0.0000     0.0000 </r>
        <r>    -3.8294     0.1198     0.0038     0.0038     0.0038     0.0000     0.0000     0.0000     0.0000     0.0000 </r>
        <r>    -3.7460     0.0879     0.0031     0.0031     0.0031     0.0000     0.0000     0.0000     0.0000     0.0000 </r>
        <r>    -3.6627     0.0866     0.0031     0.0031     0.0031     0.0000     0.0000     0.0000     0.0000     0.0000 </r>
        <r>    -3.5794     0.0853     0.0031     0.0031     0.0031     0.0000     0.0000     0.0000     0.0000     0.0000 </r>
        <r>    -3.4961     0.0841     0.0032     0.0032     0.0032     0.0000     0.0000     0.0000     0.0000     0.0000 </r>
        <r>    -3.4128     0.0828     0.0032     0.0032     0.0032     0.0000     0.0000     0.0000     0.0000     0.0000 </r>
        <r>    -3.3295     0.0814     0.0032     0.0032     0.0032     0.0000     0.0000     0.0000     0.0000     0.0000 </r>
        <r>    -3.2461     0.0801     0.0033     0.0033     0.0033     0.0000     0.0000     0.0000     0.0000     0.0000 </r>
        <r>    -3.1628     0.0807     0.0034     0.0034     0.0034     0.0000     0.0000     0.0000     0.0000     0.0000 </r>
        <r>    -3.0795     0.0812     0.0037     0.0037     0.0037     0.0000     0.0000     0.0000     0.0000     0.0000 </r>
        <r>    -2.9962     0.0703     0.0034     0.0034     0.0034     0.0000     0.0000     0.0000     0.0000     0.0000 </r>
        <r>    -2.9129     0.0625     0.0032     0.0032     0.0032     0.0000     0.0000     0.0000     0.0000     0.0000 </r>
        <r>    -2.8296     0.0559     0.0029     0.0029     0.0029     0.0000     0.0000     0.0000     0.0000     0.0000 </r>
        <r>    -2.7462     0.0494     0.0026     0.0026     0.0026     0.0000     0.0000     0.0000     0.0000     0.0000 </r>
        <r>    -2.6629     0.0430     0.0023     0.0023     0.0023     0.0000     0.0000     0.0000     0.0000     0.0000 </r>
        <r>    -2.5796     0.0368     0.0020     0.0020     0.0020     0.0000     0.0000     0.0000     0.0000     0.0000 </r>
        <r>    -2.4963     0.0307     0.0017     0.0017     0.0017     0.0000     0.0000     0.0000     0.0000     0.0000 </r>
        <r>    -2.4130     0.0247     0.0014     0.0014     0.0014     0.0000     0.0000     0.0000     0.0000     0.0000 </r>
        <r>    -2.3297     0.0189     0.0010     0.0010     0.0010     0.0000     0.0000     0.0000     0.0000     0.0000 </r>
        <r>    -2.2464     0.0132     0.0007     0.0007     0.0007     0.0000     0.0000     0.0000     0.0000     0.0000 </r>
        <r>    -2.1630     0.0077     0.0004     0.0004     0.0004     0.0000     0.0000     0.0000     0.0000     0.0000 </r>
        <r>    -2.0797     0.0028     0.0002     0.0002     0.0002     0.0000     0.0000     0.0000     0.0000     0.0000 </r>
        <r>    -1.9964     0.0024     0.0002     0.0002     0.0002     0.0000     0.0000     0.0000     0.0000     0.0000 </r>
        <r>    -1.9131     0.0072     0.0007     0.0007     0.0007     0.0000     0.0000     0.0000     0.0000     0.0000 </r>
        <r>    -1.8298     0.0122     0.0012     0.0012     0.0012     0.0000     0.0000     0.0000     0.0000     0.0000 </r>
        <r>    -1.7465     0.0173     0.0017     0.0017     0.0017     0.0000     0.0000     0.0000     0.0000     0.0000 </r>
        <r>    -1.6631     0.0226     0.0022     0.0022     0.0022     0.0000     0.0000     0.0000     0.0000     0.0000 </r>
        <r>    -1.5798     0.0281     0.0028     0.0028     0.0028     0.0000     0.0000     0.0000     0.0000     0.0000 </r>
        <r>    -1.4965     0.0337     0.0034     0.0034     0.0034     0.0000     0.0000     0.0000     0.0000     0.0000 </r>
        <r>    -1.4132     0.0395     0.0040     0.0040     0.0040     0.0000     0.0000     0.0000     0.0000     0.0000 </r>
        <r>    -1.3299     0.0454     0.0046     0.0046     0.0046     0.0000     0.0000     0.0000     0.0000     0.0000 </r>
        <r>    -1.2466     0.0515     0.0053     0.0053     0.0053     0.0000     0.0000     0.0000     0.0000     0.0000 </r>
        <r>    -1.1632     0.0587     0.0063     0.0063     0.0063     0.0000     0.0000     0.0000     0.0000     0.0000 </r>
        <r>    -1.0799     0.0900     0.0116     0.0116     0.0116     0.0000     0.0000     0.0000     0.0000     0.0000 </r>
        <r>    -0.9966     0.1216     0.0176     0.0176     0.0176     0.0000     0.0000     0.0000     0.0000     0.0000 </r>
        <r>    -0.9133     0.1094     0.0179     0.0179     0.0179     0.0000     0.0000     0.0000     0.0000     0.0000 </r>
[...]
        <r>  0.0000  0.0000  0.1077  0.0000  0.0000  0.0000  0.0000  0.0000  0.0000 </r>
       </set>
       <set comment="band 8">
        <r>  0.0196  0.0637  0.0000  0.0367  0.0000  0.0000  0.0000  0.0000  0.0000 </r>
        <r>  0.0196  0.0637  0.0000  0.0367  0.0000  0.0000  0.0000  0.0000  0.0000 </r>
       </set>
       <set comment="band 9">
        <r>  0.0037  0.0099  0.0000  0.0787  0.0000  0.0000  0.0000  0.0000  0.0000 </r>
        <r>  0.0037  0.0099  0.0000  0.0787  0.0000  0.0000  0.0000  0.0000  0.0000 </r>
       </set>
      </set>
      <set comment="kpoint 8">
       <set comment="band 1">
        <r>  0.2110  0.0078  0.0000  0.0099  0.0000  0.0000  0.0000  0.0000  0.0000 </r>
        <r>  0.2110  0.0078  0.0000  0.0099  0.0000  0.0000  0.0000  0.0000  0.0000 </r>
       </set>
       <set comment="band 2">
        <r>  0.1275  0.0088  0.0000  0.0790  0.0000  0.0000  0.0000  0.0000  0.0000 </r>
        <r>  0.1275  0.0088  0.0000  0.0790  0.0000  0.0000  0.0000  0.0000  0.0000 </r>
       </set>
       <set comment="band 3">
        <r>  0.0330  0.1266  0.0000  0.0277  0.0000  0.0000  0.0000  0.0000  0.0000 </r>
        <r>  0.0330  0.1266  0.0000  0.0277  0.0000  0.0000  0.0000  0.0000  0.0000 </r>
       </set>
       <set comment="band 4">
        <r>  0.0000  0.0000  0.2105  0.0000  0.0000  0.0000  0.0000  0.0000  0.0000 </r>
        <r>  0.0000  0.0000  0.2105  0.0000  0.0000  0.0000  0.0000  0.0000  0.0000 </r>
       </set>
       <set comment="band 5">
        <r>  0.0833  0.0256  0.0000  0.0395  0.0000  0.0000  0.0000  0.0000  0.0000 </r>
        <r>  0.0833  0.0256  0.0000  0.0395  0.0000  0.0000  0.0000  0.0000  0.0000 </r>
       </set>
       <set comment="band 6">
        <r>  0.0431  0.0907  0.0000  0.0083  0.0000  0.0000  0.0000  0.0000  0.0000 </r>
        <r>  0.0431  0.0907  0.0000  0.0083  0.0000  0.0000  0.0000  0.0000  0.0000 </r>
       </set>
       <set comment="band 7">
        <r>  0.0000  0.0000  0.1171  0.0000  0.0000  0.0000  0.0000  0.0000  0.0000 </r>
        <r>  0.0000  0.0000  0.1171  0.0000  0.0000  0.0000  0.0000  0.0000  0.0000 </r>
       </set>
       <set comment="band 8">
        <r>  0.0391  0.0166  0.0000  0.1099  0.0000  0.0000  0.0000  0.0000  0.0000 </r>
        <r>  0.0391  0.0166  0.0000  0.1099  0.0000  0.0000  0.0000  0.0000  0.0000 </r>
       </set>
       <set comment="band 9">
        <r>  0.0000  0.0000  0.0368  0.0000  0.0000  0.0000  0.0000  0.0000  0.0000 </r>
        <r>  0.0000  0.0000  0.0368  0.0000  0.0000  0.0000  0.0000  0.0000  0.0000 </r>
       </set>
      </set>
      <set comment="kpoint 9">
       <set comment="band 1">
        <r>  0.2084  0.0062  0.0000  0.0033  0.0000  0.0000  0.0000  0.0000  0.0000 </r>
        <r>  0.2084  0.0062  0.0000  0.0033  0.0000  0.0000  0.0000  0.0000  0.0000 </r>
       </set>
       <set comment="band 2">
        <r>  0.1245  0.0622  0.0000  0.0475  0.0000  0.0000  0.0000  0.0000  0.0000 </r>
        <r>  0.1245  0.0622  0.0000  0.0475  0.0000  0.0000  0.0000  0.0000  0.0000 </r>
       </set>
       <set comment="band 3">
        <r>  0.0110  0.0775  0.0000  0.0908  0.0000  0.0000  0.0000  0.0000  0.0000 </r>
        <r>  0.0110  0.0775  0.0000  0.0908  0.0000  0.0000  0.0000  0.0000  0.0000 </r>
       </set>
       <set comment="band 4">
        <r>  0.0000  0.0000  0.2173  0.0000  0.0000  0.0000  0.0000  0.0000  0.0000 </r>
        <r>  0.0000  0.0000  0.2173  0.0000  0.0000  0.0000  0.0000  0.0000  0.0000 </r>
       </set>
       <set comment="band 5">
        <r>  0.0982  0.0308  0.0000  0.0614  0.0000  0.0000  0.0000  0.0000  0.0000 </r>
        <r>  0.0982  0.0308  0.0000  0.0614  0.0000  0.0000  0.0000  0.0000  0.0000 </r>
       </set>
       <set comment="band 6">
        <r>  0.0000  0.0000  0.1492  0.0000  0.0000  0.0000  0.0000  0.0000  0.0000 </r>
        <r>  0.0000  0.0000  0.1492  0.0000  0.0000  0.0000  0.0000  0.0000  0.0000 </r>
       </set>
       <set comment="band 7">
        <r>  0.0297  0.0473  0.0000  0.0740  0.0000  0.0000  0.0000  0.0000  0.0000 </r>
        <r>  0.0297  0.0473  0.0000  0.0740  0.0000  0.0000  0.0000  0.0000  0.0000 </r>
       </set>
       <set comment="band 8">
        <r>  0.0697  0.0647  0.0000  0.0326  0.0000  0.0000  0.0000  0.0000  0.0000 </r>
        <r>  0.0697  0.0647  0.0000  0.0326  0.0000  0.0000  0.0000  0.0000  0.0000 </r>
       </set>
       <set comment="band 9">
        <r>  0.0000  0.0000  0.0008  0.0000  0.0000  0.0000  0.0000  0.0000  0.0000 </r>
        <r>  0.0000  0.0000  0.0008  0.0000  0.0000  0.0000  0.0000  0.0000  0.0000 </r>
       </set>
      </set>
      <set comment="kpoint 10">
       <set comment="band 1">
        <r>  0.2031  0.0067  0.0000  0.0134  0.0000  0.0000  0.0000  0.0000  0.0000 </r>
        <r>  0.2031  0.0067  0.0000  0.0134  0.0000  0.0000  0.0000  0.0000  0.0000 </r>
       </set>
       <set comment="band 2">
        <r>  0.1750  0.0254  0.0000  0.0508  0.0000  0.0000  0.0000  0.0000  0.0000 </r>
        <r>  0.1750  0.0254  0.0000  0.0508  0.0000  0.0000  0.0000  0.0000  0.0000 </r>
       </set>
       <set comment="band 3">
        <r>  0.0000  0.1302  0.0000  0.0651  0.0000  0.0000  0.0000  0.0000  0.0000 </r>
        <r>  0.0000  0.1302  0.0000  0.0651  0.0000  0.0000  0.0000  0.0000  0.0000 </r>
       </set>
       <set comment="band 4">
        <r>  0.0000  0.0000  0.1952  0.0000  0.0000  0.0000  0.0000  0.0000  0.0000 </r>
        <r>  0.0000  0.0000  0.1952  0.0000  0.0000  0.0000  0.0000  0.0000  0.0000 </r>
       </set>
       <set comment="band 5">
        <r>  0.0497  0.0195  0.0000  0.0389  0.0000  0.0000  0.0000  0.0000  0.0000 </r>
        <r>  0.0497  0.0195  0.0000  0.0389  0.0000  0.0000  0.0000  0.0000  0.0000 </r>
       </set>
       <set comment="band 6">
        <r>  0.0443  0.0109  0.0000  0.0217  0.0000  0.0000  0.0000  0.0000  0.0000 </r>
        <r>  0.0443  0.0109  0.0000  0.0217  0.0000  0.0000  0.0000  0.0000  0.0000 </r>
       </set>
       <set comment="band 7">
        <r>  0.0000  0.0060  0.1570  0.0030  0.0000  0.0000  0.0000  0.0000  0.0000 </r>
        <r>  0.0000  0.0060  0.1570  0.0030  0.0000  0.0000  0.0000  0.0000  0.0000 </r>
       </set>
       <set comment="band 8">
        <r>  0.0000  0.1046  0.0091  0.0523  0.0000  0.0000  0.0000  0.0000  0.0000 </r>
        <r>  0.0000  0.1046  0.0091  0.0523  0.0000  0.0000  0.0000  0.0000  0.0000 </r>
       </set>
       <set comment="band 9">
        <r>  0.1306  0.0454  0.0000  0.0910  0.0000  0.0000  0.0000  0.0000  0.0000 </r>
        <r>  0.1304  0.0454  0.0000  0.0905  0.0000  0.0000  0.0000  0.0000  0.0000 </r>
       </set>
      </set>
      <set comment="kpoint 11">
       <set comment="band 1">
        <r>  0.2027  0.0073  0.0000  0.0228  0.0000  0.0000  0.0000  0.0000  0.0000 </r>
        <r>  0.2027  0.0073  0.0000  0.0228  0.0000  0.0000  0.0000  0.0000  0.0000 </r>
       </set>
       <set comment="band 2">
        <r>  0.1853  0.0134  0.0000  0.0453  0.0000  0.0000  0.0000  0.0000  0.0000 </r>
        <r>  0.1853  0.0134  0.0000  0.0453  0.0000  0.0000  0.0000  0.0000  0.0000 </r>
       </set>
       <set comment="band 3">
        <r>  0.0053  0.1119  0.0000  0.0505  0.0000  0.0000  0.0000  0.0000  0.0000 </r>
        <r>  0.0053  0.1119  0.0000  0.0505  0.0000  0.0000  0.0000  0.0000  0.0000 </r>
       </set>
       <set comment="band 4">
        <r>  0.0000  0.0000  0.1965  0.0000  0.0000  0.0000  0.0000  0.0000  0.0000 </r>
        <r>  0.0000  0.0000  0.1965  0.0000  0.0000  0.0000  0.0000  0.0000  0.0000 </r>
       </set>
       <set comment="band 5">
        <r>  0.0497  0.0272  0.0000  0.0177  0.0000  0.0000  0.0000  0.0000  0.0000 </r>
        <r>  0.0497  0.0272  0.0000  0.0177  0.0000  0.0000  0.0000  0.0000  0.0000 </r>
       </set>
       <set comment="band 6">
        <r>  0.0345  0.0365  0.0000  0.0350  0.0000  0.0000  0.0000  0.0000  0.0000 </r>
        <r>  0.0345  0.0365  0.0000  0.0350  0.0000  0.0000  0.0000  0.0000  0.0000 </r>
       </set>
       <set comment="band 7">
        <r>  0.0405  0.1362  0.0000  0.0053  0.0000  0.0000  0.0000  0.0000  0.0000 </r>
        <r>  0.0405  0.1362  0.0000  0.0053  0.0000  0.0000  0.0000  0.0000  0.0000 </r>
       </set>
       <set comment="band 8">
        <r>  0.0000  0.0000  0.1281  0.0000  0.0000  0.0000  0.0000  0.0000  0.0000 </r>
        <r>  0.0000  0.0000  0.1281  0.0000  0.0000  0.0000  0.0000  0.0000  0.0000 </r>
       </set>
       <set comment="band 9">
        <r>  0.0143  0.0113  0.0003  0.1381  0.0000  0.0000  0.0000  0.0000  0.0000 </r>
        <r>  0.0143  0.0113  0.0003  0.1381  0.0000  0.0000  0.0000  0.0000  0.0000 </r>
       </set>
      </set>
      <set comment="kpoint 12">
       <set comment="band 1">
        <r>  0.2133  0.0141  0.0000  0.0129  0.0000  0.0000  0.0000  0.0000  0.0000 </r>
        <r>  0.2133  0.0141  0.0000  0.0129  0.0000  0.0000  0.0000  0.0000  0.0000 </r>
       </set>
       <set comment="band 2">
        <r>  0.1763  0.0268  0.0000  0.0341  0.0000  0.0000  0.0000  0.0000  0.0000 </r>
        <r>  0.1763  0.0268  0.0000  0.0341  0.0000  0.0000  0.0000  0.0000  0.0000 </r>
       </set>
       <set comment="band 3">
        <r>  0.0035  0.0808  0.0000  0.0697  0.0000  0.0000  0.0000  0.0000  0.0000 </r>
        <r>  0.0035  0.0808  0.0000  0.0697  0.0000  0.0000  0.0000  0.0000  0.0000 </r>
       </set>
       <set comment="band 4">
        <r>  0.0000  0.0000  0.2008  0.0000  0.0000  0.0000  0.0000  0.0000  0.0000 </r>
        <r>  0.0000  0.0000  0.2008  0.0000  0.0000  0.0000  0.0000  0.0000  0.0000 </r>
       </set>
       <set comment="band 5">
        <r>  0.0540  0.0164  0.0000  0.0305  0.0000  0.0000  0.0000  0.0000  0.0000 </r>
        <r>  0.0540  0.0164  0.0000  0.0305  0.0000  0.0000  0.0000  0.0000  0.0000 </r>
       </set>
       <set comment="band 6">
        <r>  0.0069  0.0506  0.0000  0.0259  0.0000  0.0000  0.0000  0.0000  0.0000 </r>
        <r>  0.0069  0.0506  0.0000  0.0259  0.0000  0.0000  0.0000  0.0000  0.0000 </r>
       </set>
       <set comment="band 7">
        <r>  0.0000  0.0000  0.1528  0.0000  0.0000  0.0000  0.0000  0.0000  0.0000 </r>
        <r>  0.0000  0.0000  0.1528  0.0000  0.0000  0.0000  0.0000  0.0000  0.0000 </r>
       </set>
       <set comment="band 8">
        <r>  0.0441  0.0468  0.0000  0.0857  0.0000  0.0000  0.0000  0.0000  0.0000 </r>
        <r>  0.0441  0.0468  0.0000  0.0857  0.0000  0.0000  0.0000  0.0000  0.0000 </r>
       </set>
       <set comment="band 9">
        <r>  0.0624  0.0937  0.0000  0.0646  0.0000  0.0000  0.0000  0.0000  0.0000 </r>
        <r>  0.0624  0.0937  0.0000  0.0646  0.0000  0.0000  0.0000  0.0000  0.0000 </r>
       </set>
      </set>
      <set comment="kpoint 13">
       <set comment="band 1">
        <r>  0.1931  0.0146  0.0000  0.0293  0.0000  0.0000  0.0000  0.0000  0.0000 </r>
        <r>  0.1931  0.0146  0.0000  0.0293  0.0000  0.0000  0.0000  0.0000  0.0000 </r>
       </set>
       <set comment="band 2">
        <r>  0.1931  0.0146  0.0000  0.0293  0.0000  0.0000  0.0000  0.0000  0.0000 </r>
        <r>  0.1931  0.0146  0.0000  0.0293  0.0000  0.0000  0.0000  0.0000  0.0000 </r>
       </set>
       <set comment="band 3">
        <r>  0.0000  0.1299  0.0000  0.0650  0.0000  0.0000  0.0000  0.0000  0.0000 </r>
        <r>  0.0000  0.1299  0.0000  0.0650  0.0000  0.0000  0.0000  0.0000  0.0000 </r>
       </set>
       <set comment="band 4">
        <r>  0.0000  0.0000  0.1949  0.0000  0.0000  0.0000  0.0000  0.0000  0.0000 </r>
        <r>  0.0000  0.0000  0.1949  0.0000  0.0000  0.0000  0.0000  0.0000  0.0000 </r>
       </set>
       <set comment="band 5">
        <r>  0.0511  0.0121  0.0000  0.0241  0.0000  0.0000  0.0000  0.0000  0.0000 </r>
        <r>  0.0511  0.0121  0.0000  0.0241  0.0000  0.0000  0.0000  0.0000  0.0000 </r>
       </set>
       <set comment="band 6">
        <r>  0.0511  0.0121  0.0000  0.0241  0.0000  0.0000  0.0000  0.0000  0.0000 </r>
        <r>  0.0511  0.0121  0.0000  0.0241  0.0000  0.0000  0.0000  0.0000  0.0000 </r>
       </set>
       <set comment="band 7">
        <r>  0.0000  0.0005  0.2391  0.0002  0.0000  0.0000  0.0000  0.0000  0.0000 </r>
        <r>  0.0000  0.0005  0.2391  0.0002  0.0000  0.0000  0.0000  0.0000  0.0000 </r>
       </set>
       <set comment="band 8">
        <r>  0.0000  0.1594  0.0007  0.0797  0.0000  0.0000  0.0000  0.0000  0.0000 </r>
        <r>  0.0000  0.1594  0.0007  0.0797  0.0000  0.0000  0.0000  0.0000  0.0000 </r>
       </set>
       <set comment="band 9">
        <r>  0.0000  0.0062  0.0017  0.0031  0.0000  0.0000  0.0000  0.0000  0.0000 </r>
        <r>  0.0000  0.0062  0.0017  0.0031  0.0000  0.0000  0.0000  0.0000  0.0000 </r>
       </set>
      </set>
      <set comment="kpoint 14">
       <set comment="band 1">
        <r>  0.2061  0.0028  0.0023  0.0168  0.0000  0.0000  0.0000  0.0000  0.0000 </r>
        <r>  0.2061  0.0028  0.0023  0.0168  0.0000  0.0000  0.0000  0.0000  0.0000 </r>
       </set>
       <set comment="band 2">
        <r>  0.1705  0.0125  0.0172  0.0440  0.0000  0.0000  0.0000  0.0000  0.0000 </r>
        <r>  0.1705  0.0125  0.0172  0.0440  0.0000  0.0000  0.0000  0.0000  0.0000 </r>
       </set>
       <set comment="band 3">
        <r>  0.0109  0.0299  0.0680  0.0604  0.0000  0.0000  0.0000  0.0000  0.0000 </r>
        <r>  0.0109  0.0299  0.0680  0.0604  0.0000  0.0000  0.0000  0.0000  0.0000 </r>
       </set>
       <set comment="band 4">
        <r>  0.0042  0.1089  0.0642  0.0100  0.0000  0.0000  0.0000  0.0000  0.0000 </r>
        <r>  0.0042  0.1089  0.0642  0.0100  0.0000  0.0000  0.0000  0.0000  0.0000 </r>
       </set>
       <set comment="band 5">
        <r>  0.0287  0.0577  0.0301  0.0134  0.0000  0.0000  0.0000  0.0000  0.0000 </r>
        <r>  0.0287  0.0577  0.0301  0.0134  0.0000  0.0000  0.0000  0.0000  0.0000 </r>
       </set>
       <set comment="band 6">
        <r>  0.0263  0.0039  0.0222  0.0329  0.0000  0.0000  0.0000  0.0000  0.0000 </r>
        <r>  0.0263  0.0039  0.0222  0.0329  0.0000  0.0000  0.0000  0.0000  0.0000 </r>
       </set>
       <set comment="band 7">
        <r>  0.0581  0.0512  0.0415  0.0107  0.0000  0.0000  0.0000  0.0000  0.0000 </r>
        <r>  0.0581  0.0512  0.0415  0.0107  0.0000  0.0000  0.0000  0.0000  0.0000 </r>
       </set>
       <set comment="band 8">
        <r>  0.0057  0.0680  0.0670  0.0139  0.0000  0.0000  0.0000  0.0000  0.0000 </r>
        <r>  0.0057  0.0680  0.0670  0.0139  0.0000  0.0000  0.0000  0.0000  0.0000 </r>
       </set>
       <set comment="band 9">
        <r>  0.0380  0.0090  0.0055  0.0520  0.0000  0.0000  0.0000  0.0000  0.0000 </r>
        <r>  0.0380  0.0090  0.0056  0.0521  0.0000  0.0000  0.0000  0.0000  0.0000 </r>
       </set>
      </set>
      <set comment="kpoint 15">
       <set comment="band 1">
        <r>  0.2145  0.0090  0.0037  0.0138  0.0000  0.0000  0.0000  0.0000  0.0000 </r>
        <r>  0.2145  0.0090  0.0037  0.0138  0.0000  0.0000  0.0000  0.0000  0.0000 </r>
       </set>
       <set comment="band 2">
        <r>  0.1668  0.0097  0.0037  0.0510  0.0000  0.0000  0.0000  0.0000  0.0000 </r>
        <r>  0.1668  0.0097  0.0037  0.0510  0.0000  0.0000  0.0000  0.0000  0.0000 </r>
       </set>
       <set comment="band 3">
        <r>  0.0183  0.0718  0.0281  0.0494  0.0000  0.0000  0.0000  0.0000  0.0000 </r>
        <r>  0.0183  0.0718  0.0281  0.0494  0.0000  0.0000  0.0000  0.0000  0.0000 </r>
       </set>
       <set comment="band 4">
        <r>  0.0012  0.0492  0.1177  0.0102  0.0000  0.0000  0.0000  0.0000  0.0000 </r>
        <r>  0.0012  0.0492  0.1177  0.0102  0.0000  0.0000  0.0000  0.0000  0.0000 </r>
       </set>
       <set comment="band 5">
        <r>  0.0081  0.0331  0.0482  0.0031  0.0000  0.0000  0.0000  0.0000  0.0000 </r>
        <r>  0.0081  0.0331  0.0482  0.0031  0.0000  0.0000  0.0000  0.0000  0.0000 </r>
       </set>
       <set comment="band 6">
        <r>  0.0628  0.0282  0.0460  0.0136  0.0000  0.0000  0.0000  0.0000  0.0000 </r>
        <r>  0.0628  0.0282  0.0460  0.0136  0.0000  0.0000  0.0000  0.0000  0.0000 </r>
       </set>
       <set comment="band 7">
        <r>  0.0191  0.0255  0.0148  0.0469  0.0000  0.0000  0.0000  0.0000  0.0000 </r>
        <r>  0.0191  0.0255  0.0148  0.0469  0.0000  0.0000  0.0000  0.0000  0.0000 </r>
       </set>
       <set comment="band 8">
        <r>  0.0333  0.0473  0.0167  0.0583  0.0000  0.0000  0.0000  0.0000  0.0000 </r>
        <r>  0.0333  0.0473  0.0167  0.0583  0.0000  0.0000  0.0000  0.0000  0.0000 </r>
       </set>
       <set comment="band 9">
        <r>  0.0158  0.0634  0.0544  0.0068  0.0000  0.0000  0.0000  0.0000  0.0000 </r>
        <r>  0.0158  0.0634  0.0544  0.0068  0.0000  0.0000  0.0000  0.0000  0.0000 </r>
       </set>
      </set>
      <set comment="kpoint 16">
       <set comment="band 1">
        <r>  0.2009  0.0146  0.0044  0.0228  0.0000  0.0000  0.0000  0.0000  0.0000 </r>
        <r>  0.2009  0.0146  0.0044  0.0228  0.0000  0.0000  0.0000  0.0000  0.0000 </r>
       </set>
       <set comment="band 2">
        <r>  0.2009  0.0133  0.0043  0.0242  0.0000  0.0000  0.0000  0.0000  0.0000 </r>
        <r>  0.2009  0.0133  0.0043  0.0242  0.0000  0.0000  0.0000  0.0000  0.0000 </r>
       </set>
       <set comment="band 3">
        <r>  0.0017  0.0250  0.0708  0.0683  0.0000  0.0000  0.0000  0.0000  0.0000 </r>
        <r>  0.0017  0.0251  0.0708  0.0683  0.0000  0.0000  0.0000  0.0000  0.0000 </r>
       </set>
       <set comment="band 4">
        <r>  0.0017  0.0844  0.0679  0.0118  0.0000  0.0000  0.0000  0.0000  0.0000 </r>
        <r>  0.0017  0.0844  0.0679  0.0118  0.0000  0.0000  0.0000  0.0000  0.0000 </r>
       </set>
       <set comment="band 5">
        <r>  0.0344  0.0317  0.0047  0.0401  0.0000  0.0000  0.0000  0.0000  0.0000 </r>
        <r>  0.0329  0.0317  0.0043  0.0407  0.0000  0.0000  0.0000  0.0000  0.0000 </r>
       </set>
       <set comment="band 6">
        <r>  0.0329  0.0194  0.0495  0.0078  0.0000  0.0000  0.0000  0.0000  0.0000 </r>
        <r>  0.0344  0.0193  0.0499  0.0072  0.0000  0.0000  0.0000  0.0000  0.0000 </r>
       </set>
       <set comment="band 7">
        <r>  0.0279  0.0647  0.0408  0.0082  0.0000  0.0000  0.0000  0.0000  0.0000 </r>
        <r>  0.0271  0.0648  0.0405  0.0088  0.0000  0.0000  0.0000  0.0000  0.0000 </r>
       </set>
       <set comment="band 8">
        <r>  0.0271  0.0112  0.0408  0.0620  0.0000  0.0000  0.0000  0.0000  0.0000 </r>
        <r>  0.0279  0.0111  0.0411  0.0615  0.0000  0.0000  0.0000  0.0000  0.0000 </r>
       </set>
       <set comment="band 9">
        <r>  0.0003  0.0289  0.0284  0.0510  0.0000  0.0000  0.0000  0.0000  0.0000 </r>
        <r>  0.0001  0.0441  0.0400  0.0698  0.0000  0.0000  0.0000  0.0000  0.0000 </r>
       </set>
      </set>
     </set>
    </set>
   </array>
  </projected>
 </calculation>
 <structure name="finalpos" >
  <crystal>
   <varray name="basis" >
    <v>       3.34889800       0.00000000       1.93348700 </v>
    <v>       1.11629900       3.15737200       1.93348700 </v>
    <v>       0.00000000       0.00000000       3.86697500 </v>
   </varray>
   <i name="volume">     40.88829843 </i>
   <varray name="rec_basis" >
    <v>       0.29860569      -0.10557300       0.00000000 </v>
    <v>       0.00000000       0.31671909       0.00000000 </v>
    <v>      -0.14930281      -0.10557302       0.25860007 </v>
   </varray>
  </crystal>
  <varray name="positions" >
   <v>       0.25000000       0.25000000       0.25000000 </v>
   <v>       0.00000000       0.00000000       0.00000000 </v>
  </varray>
  <varray name="velocities" >
   <v>       0.00000000       0.00000000       0.00000000 </v>
   <v>       0.00000000       0.00000000       0.00000000 </v>
  </varray>
 </structure>
</modeling>
