 vasp.6.1.2 22Jul20 (build Dec 10 2020 10:33:42) complex                        
  
 executed on             LinuxIFC date 2022.08.31  16:17:35
 running on  144 total cores
 distrk:  each k-point on  144 cores,    1 groups
 distr:  one band on NCORE=  36 cores,    4 groups


--------------------------------------------------------------------------------------------------------


 INCAR:
 POTCAR:    PAW_PBE Si 05Jan2001                  
 WARNING: For LVTOT=.TRUE., VASP.5.x writes the TOTAL local potential to the
     file LOCPOT. If you want only the Hartree contributions, use LVHAR=.TRUE.
     instead. 

 -----------------------------------------------------------------------------
|                                                                             |
|           W    W    AA    RRRRR   N    N  II  N    N   GGGG   !!!           |
|           W    W   A  A   R    R  NN   N  II  NN   N  G    G  !!!           |
|           W    W  A    A  R    R  N N  N  II  N N  N  G       !!!           |
|           W WW W  AAAAAA  RRRRR   N  N N  II  N  N N  G  GGG   !            |
|           WW  WW  A    A  R   R   N   NN  II  N   NN  G    G                |
|           W    W  A    A  R    R  N    N  II  N    N   GGGG   !!!           |
|                                                                             |
|     For optimal performance we recommend to set                             |
|       NCORE = 4 - approx SQRT(number of cores).                             |
|     NCORE specifies how many cores store one orbital (NPAR=cpu/NCORE).      |
|     This setting can greatly improve the performance of VASP for DFT.       |
|     The default, NCORE=1 might be grossly inefficient on modern             |
|     multi-core architectures or massively parallel machines. Do your        |
|     own testing!!!!                                                         |
|     Unfortunately you need to use the default for GW and RPA                |
|     calculations (for HF NCORE is supported but not extensively tested      |
|     yet).                                                                   |
|                                                                             |
 -----------------------------------------------------------------------------

 POTCAR:    PAW_PBE Si 05Jan2001                  
   VRHFIN =Si: s2p2                                                                                 
   LEXCH  = PE                                                                                      
   EATOM  =   103.0669 eV,    7.5752 Ry                                                             
                                                                                                    
   TITEL  = PAW_PBE Si 05Jan2001                                                                    
   LULTRA =        F    use ultrasoft PP ?                                                          
   IUNSCR =        1    unscreen: 0-lin 1-nonlin 2-no                                               
   RPACOR =    1.500    partial core radius                                                         
   POMASS =   28.085; ZVAL   =    4.000    mass and valenz                                          
   RCORE  =    1.900    outmost cutoff radius                                                       
   RWIGS  =    2.480; RWIGS  =    1.312    wigner-seitz radius (au A)                               
   ENMAX  =  245.345; ENMIN  =  184.009 eV                                                          
   ICORE  =        2    local potential                                                             
   LCOR   =        T    correct aug charges                                                         
   LPAW   =        T    paw PP                                                                      
   EAUG   =  322.069                                                                                
   DEXC   =    0.000                                                                                
   RMAX   =    1.950    core radius for proj-oper                                                   
   RAUG   =    1.300    factor for augmentation sphere                                              
   RDEP   =    1.993    radius for radial grids                                                     
   RDEPT  =    1.837    core radius for aug-charge                                                  
                                                                                                    
   Atomic configuration                                                                             
    6 entries                                                                                       
     n  l   j            E        occ.                                                              
     1  0  0.50     -1785.8828   2.0000                                                             
     2  0  0.50      -139.4969   2.0000                                                             
     2  1  1.50       -95.5546   6.0000                                                             
     3  0  0.50       -10.8127   2.0000                                                             
     3  1  0.50        -4.0811   2.0000                                                             
     3  2  1.50        -4.0817   0.0000                                                             
   Description                                                                                      
     l       E           TYP  RCUT    TYP  RCUT                                                     
     0    -10.8127223     23  1.900                                                                 
     0     -7.6451159     23  1.900                                                                 
     1     -4.0811372     23  1.900                                                                 
     1      2.4879257     23  1.900                                                                 
     2     -4.0817478      7  1.900                                                                 
  local pseudopotential read in
  partial core-charges read in
  partial kinetic energy density read in
  atomic valenz-charges read in
  non local Contribution for L=           0  read in
    real space projection operators read in
  non local Contribution for L=           0  read in
    real space projection operators read in
  non local Contribution for L=           1  read in
    real space projection operators read in
  non local Contribution for L=           1  read in
    real space projection operators read in
    PAW grid and wavefunctions read in
 
   number of l-projection  operators is LMAX  =           4
   number of lm-projection operators is LMMAX =           8
 
 -----------------------------------------------------------------------------
|                                                                             |
|               ----> ADVICE to this user running VASP <----                  |
|                                                                             |
|     You enforced a specific xc type in the INCAR file but a different       |
|     type was found in the POTCAR file.                                      |
|     I HOPE YOU KNOW WHAT YOU ARE DOING!                                     |
|                                                                             |
 -----------------------------------------------------------------------------

  PAW_PBE Si 05Jan2001                  :
 energy of atom  1       EATOM= -103.0669
 kinetic energy error for atom=    0.0003 (will be added to EATOM!!)
 
 
 POSCAR: Si8
  positions in direct lattice
  No initial velocities read in
 exchange correlation table for  LEXCH =       14
   RHO(1)=    0.500       N(1)  =     2000
   RHO(2)=  100.500       N(2)  =     4000

 VTST: version 3.2, (02/03/18)

 CHAIN: initializing optimizer
 
 OPT: Using VASP Conjugate-Gradient optimizer
 CHAIN: Read ICHAIN            0
 
 POSCAR: Si8
  positions in direct lattice
  No initial velocities read in
 


--------------------------------------------------------------------------------------------------------


 ion  position               nearest neighbor table
   1  0.002  0.000  0.000-   5 2.35   6 2.35   7 2.36   8 2.36
   2  0.000  0.500  0.500-   5 2.35   6 2.35   7 2.35   8 2.35
   3  0.500  0.000  0.500-   5 2.35   6 2.35   7 2.35   8 2.35
   4  0.500  0.500  0.000-   5 2.35   6 2.35   7 2.35   8 2.35
   5  0.250  0.250  0.250-   1 2.35   2 2.35   3 2.35   4 2.35
   6  0.250  0.750  0.750-   1 2.35   2 2.35   3 2.35   4 2.35
   7  0.750  0.250  0.750-   2 2.35   3 2.35   4 2.35   1 2.36
   8  0.750  0.750  0.250-   2 2.35   3 2.35   4 2.35   1 2.36
 
  LATTYP: Found a simple cubic cell.
 ALAT       =     5.4359997400
  
  Lattice vectors:
  
 A1 = (   5.4359997400,  -0.0000000000,  -0.0000000000)
 A2 = (  -0.0000000000,   5.4359997400,   0.0000000000)
 A3 = (   0.0000000000,   0.0000000000,   5.4359997400)


Analysis of symmetry for initial positions (statically):
=====================================================================
 Subroutine PRICEL returns:
 Original cell was already a primitive cell.
 

 Routine SETGRP: Setting up the symmetry group for a 
 simple cubic supercell.


 Subroutine GETGRP returns: Found  4 space group operations
 (whereof  4 operations were pure point group operations)
 out of a pool of 48 trial point group operations.


The static configuration has the point symmetry C_2v.


Analysis of symmetry for dynamics (positions and initial velocities):
=====================================================================
 Subroutine PRICEL returns:
 Original cell was already a primitive cell.
 

 Routine SETGRP: Setting up the symmetry group for a 
 simple cubic supercell.


 Subroutine GETGRP returns: Found  4 space group operations
 (whereof  4 operations were pure point group operations)
 out of a pool of 48 trial point group operations.


The dynamic configuration has the point symmetry C_2v.


Analysis of structural, dynamic, and magnetic symmetry:
=====================================================================
 Subroutine PRICEL returns:
 Original cell was already a primitive cell.
 

 Routine SETGRP: Setting up the symmetry group for a 
 simple cubic supercell.


 Subroutine GETGRP returns: Found  4 space group operations
 (whereof  4 operations were pure point group operations)
 out of a pool of 48 trial point group operations.


The magnetic configuration has the point symmetry C_2v.


 Subroutine INISYM returns: Found  4 space group operations
 (whereof  4 operations are pure point group operations),
 and found     1 'primitive' translations


----------------------------------------------------------------------------------------

                                     Primitive cell                                     

  volume of cell :     160.6343

  direct lattice vectors                    reciprocal lattice vectors
     5.435999740 -0.000000000 -0.000000000     0.183958802  0.000000000 -0.000000000
    -0.000000000  5.435999740  0.000000000     0.000000000  0.183958802 -0.000000000
     0.000000000  0.000000000  5.435999740     0.000000000 -0.000000000  0.183958802

  length of vectors
     5.435999740  5.435999740  5.435999740     0.183958802  0.183958802  0.183958802

  position of ions in fractional coordinates (direct lattice)
     0.001839588  0.000000000  0.000000000
     0.000000000  0.500000000  0.500000000
     0.500000000  0.000000000  0.500000000
     0.500000000  0.500000000  0.000000000
     0.250000000  0.250000000  0.250000000
     0.250000000  0.750000000  0.750000000
     0.750000000  0.250000000  0.750000000
     0.750000000  0.750000000  0.250000000

  ion indices of the primitive-cell ions
   primitive index   ion index
                 1           1
                 2           2
                 3           3
                 4           4
                 5           5
                 6           6
                 7           7
                 8           8

----------------------------------------------------------------------------------------

 
 
 KPOINTS: pymatgen with grid density = 7000 / numb

Automatic generation of k-mesh.
Space group operators:
 irot       det(A)        alpha          n_x          n_y          n_z        tau_x        tau_y        tau_z
    1     1.000000     0.000000     1.000000     0.000000     0.000000     0.000000     0.000000     0.000000
    2    -1.000000   180.000000    -0.000000    -0.707107    -0.707107     0.000000     0.000000     0.000000
    3     1.000000   180.000000     1.000000     0.000000     0.000000     0.000000     0.000000     0.000000
    4    -1.000000   180.000000    -0.000000    -0.707107     0.707107     0.000000     0.000000     0.000000
 
 Subroutine IBZKPT returns following result:
 ===========================================
 
 Found    125 irreducible k-points:
 
 Following reciprocal coordinates:
            Coordinates               Weight
  0.000000  0.000000  0.000000      1.000000
  0.111111 -0.000000 -0.000000      2.000000
  0.000000  0.111111  0.000000      4.000000
  0.222222 -0.000000 -0.000000      2.000000
 -0.000000  0.222222  0.000000      4.000000
  0.333333 -0.000000 -0.000000      2.000000
 -0.000000  0.333333  0.000000      4.000000
  0.444444 -0.000000 -0.000000      2.000000
 -0.000000  0.444444  0.000000      4.000000
  0.111111  0.111111 -0.000000      8.000000
 -0.000000  0.111111  0.111111      2.000000
 -0.000000 -0.111111  0.111111      2.000000
  0.222222  0.111111 -0.000000      8.000000
 -0.000000  0.222222  0.111111      4.000000
  0.111111  0.000000  0.222222      8.000000
 -0.000000 -0.222222  0.111111      4.000000
  0.333333  0.111111 -0.000000      8.000000
 -0.000000  0.333333  0.111111      4.000000
  0.111111 -0.000000  0.333333      8.000000
  0.000000 -0.333333  0.111111      4.000000
  0.444444  0.111111 -0.000000      8.000000
 -0.000000  0.444444  0.111111      4.000000
  0.111111  0.000000  0.444444      8.000000
 -0.000000 -0.444444  0.111111      4.000000
  0.222222  0.222222 -0.000000      8.000000
 -0.000000  0.222222  0.222222      2.000000
 -0.000000 -0.222222  0.222222      2.000000
  0.333333  0.222222 -0.000000      8.000000
 -0.000000  0.333333  0.222222      4.000000
  0.222222  0.000000  0.333333      8.000000
 -0.000000 -0.333333  0.222222      4.000000
  0.444444  0.222222 -0.000000      8.000000
 -0.000000  0.444444  0.222222      4.000000
  0.222222  0.000000  0.444444      8.000000
  0.000000 -0.444444  0.222222      4.000000
  0.333333  0.333333 -0.000000      8.000000
  0.000000  0.333333  0.333333      2.000000
 -0.000000 -0.333333  0.333333      2.000000
  0.444444  0.333333 -0.000000      8.000000
 -0.000000  0.444444  0.333333      4.000000
  0.333333  0.000000  0.444444      8.000000
 -0.000000 -0.444444  0.333333      4.000000
  0.444444  0.444444 -0.000000      8.000000
 -0.000000  0.444444  0.444444      2.000000
 -0.000000 -0.444444  0.444444      2.000000
  0.111111  0.111111  0.111111      4.000000
 -0.111111 -0.111111  0.111111      4.000000
  0.222222  0.111111  0.111111      4.000000
  0.111111  0.222222  0.111111      8.000000
 -0.222222 -0.111111  0.111111      4.000000
 -0.111111 -0.222222  0.111111      8.000000
  0.333333  0.111111  0.111111      4.000000
  0.111111  0.333333  0.111111      8.000000
 -0.333333 -0.111111  0.111111      4.000000
 -0.111111 -0.333333  0.111111      8.000000
  0.444444  0.111111  0.111111      4.000000
  0.111111  0.444444  0.111111      8.000000
 -0.444444 -0.111111  0.111111      4.000000
 -0.111111 -0.444444  0.111111      8.000000
  0.222222  0.222222  0.111111      8.000000
  0.111111  0.222222  0.222222      4.000000
 -0.222222 -0.222222  0.111111      8.000000
 -0.111111 -0.222222  0.222222      4.000000
  0.333333  0.222222  0.111111      8.000000
  0.111111  0.333333  0.222222      8.000000
  0.222222  0.111111  0.333333      8.000000
 -0.333333 -0.222222  0.111111      8.000000
 -0.111111 -0.333333  0.222222      8.000000
 -0.222222 -0.111111  0.333333      8.000000
  0.444444  0.222222  0.111111      8.000000
  0.111111  0.444444  0.222222      8.000000
  0.222222  0.111111  0.444444      8.000000
 -0.444444 -0.222222  0.111111      8.000000
 -0.111111 -0.444444  0.222222      8.000000
 -0.222222 -0.111111  0.444444      8.000000
  0.333333  0.333333  0.111111      8.000000
  0.111111  0.333333  0.333333      4.000000
 -0.333333 -0.333333  0.111111      8.000000
 -0.111111 -0.333333  0.333333      4.000000
  0.444444  0.333333  0.111111      8.000000
  0.111111  0.444444  0.333333      8.000000
  0.333333  0.111111  0.444444      8.000000
 -0.444444 -0.333333  0.111111      8.000000
 -0.111111 -0.444444  0.333333      8.000000
 -0.333333 -0.111111  0.444444      8.000000
  0.444444  0.444444  0.111111      8.000000
  0.111111  0.444444  0.444444      4.000000
 -0.444444 -0.444444  0.111111      8.000000
 -0.111111 -0.444444  0.444444      4.000000
  0.222222  0.222222  0.222222      4.000000
 -0.222222 -0.222222  0.222222      4.000000
  0.333333  0.222222  0.222222      4.000000
  0.222222  0.333333  0.222222      8.000000
 -0.333333 -0.222222  0.222222      4.000000
 -0.222222 -0.333333  0.222222      8.000000
  0.444444  0.222222  0.222222      4.000000
  0.222222  0.444444  0.222222      8.000000
 -0.444444 -0.222222  0.222222      4.000000
 -0.222222 -0.444444  0.222222      8.000000
  0.333333  0.333333  0.222222      8.000000
  0.222222  0.333333  0.333333      4.000000
 -0.333333 -0.333333  0.222222      8.000000
 -0.222222 -0.333333  0.333333      4.000000
  0.444444  0.333333  0.222222      8.000000
  0.222222  0.444444  0.333333      8.000000
  0.333333  0.222222  0.444444      8.000000
 -0.444444 -0.333333  0.222222      8.000000
 -0.222222 -0.444444  0.333333      8.000000
 -0.333333 -0.222222  0.444444      8.000000
  0.444444  0.444444  0.222222      8.000000
  0.222222  0.444444  0.444444      4.000000
 -0.444444 -0.444444  0.222222      8.000000
 -0.222222 -0.444444  0.444444      4.000000
  0.333333  0.333333  0.333333      4.000000
 -0.333333 -0.333333  0.333333      4.000000
  0.444444  0.333333  0.333333      4.000000
  0.333333  0.444444  0.333333      8.000000
 -0.444444 -0.333333  0.333333      4.000000
 -0.333333 -0.444444  0.333333      8.000000
  0.444444  0.444444  0.333333      8.000000
  0.333333  0.444444  0.444444      4.000000
 -0.444444 -0.444444  0.333333      8.000000
 -0.333333 -0.444444  0.444444      4.000000
  0.444444  0.444444  0.444444      4.000000
 -0.444444 -0.444444  0.444444      4.000000
 
 Following cartesian coordinates:
            Coordinates               Weight
  0.000000  0.000000  0.000000      1.000000
  0.020440  0.000000 -0.000000      2.000000
  0.000000  0.020440 -0.000000      4.000000
  0.040880  0.000000 -0.000000      2.000000
  0.000000  0.040880 -0.000000      4.000000
  0.061320  0.000000 -0.000000      2.000000
  0.000000  0.061320 -0.000000      4.000000
  0.081759  0.000000 -0.000000      2.000000
  0.000000  0.081759 -0.000000      4.000000
  0.020440  0.020440 -0.000000      8.000000
  0.000000  0.020440  0.020440      2.000000
 -0.000000 -0.020440  0.020440      2.000000
  0.040880  0.020440 -0.000000      8.000000
  0.000000  0.040880  0.020440      4.000000
  0.020440 -0.000000  0.040880      8.000000
 -0.000000 -0.040880  0.020440      4.000000
  0.061320  0.020440 -0.000000      8.000000
  0.000000  0.061320  0.020440      4.000000
  0.020440 -0.000000  0.061320      8.000000
 -0.000000 -0.061320  0.020440      4.000000
  0.081759  0.020440 -0.000000      8.000000
  0.000000  0.081759  0.020440      4.000000
  0.020440 -0.000000  0.081759      8.000000
 -0.000000 -0.081759  0.020440      4.000000
  0.040880  0.040880 -0.000000      8.000000
  0.000000  0.040880  0.040880      2.000000
 -0.000000 -0.040880  0.040880      2.000000
  0.061320  0.040880 -0.000000      8.000000
  0.000000  0.061320  0.040880      4.000000
  0.040880 -0.000000  0.061320      8.000000
 -0.000000 -0.061320  0.040880      4.000000
  0.081759  0.040880 -0.000000      8.000000
  0.000000  0.081759  0.040880      4.000000
  0.040880 -0.000000  0.081759      8.000000
 -0.000000 -0.081759  0.040880      4.000000
  0.061320  0.061320 -0.000000      8.000000
  0.000000  0.061320  0.061320      2.000000
 -0.000000 -0.061320  0.061320      2.000000
  0.081759  0.061320 -0.000000      8.000000
  0.000000  0.081759  0.061320      4.000000
  0.061320 -0.000000  0.081759      8.000000
 -0.000000 -0.081759  0.061320      4.000000
  0.081759  0.081759 -0.000000      8.000000
  0.000000  0.081759  0.081759      2.000000
 -0.000000 -0.081759  0.081759      2.000000
  0.020440  0.020440  0.020440      4.000000
 -0.020440 -0.020440  0.020440      4.000000
  0.040880  0.020440  0.020440      4.000000
  0.020440  0.040880  0.020440      8.000000
 -0.040880 -0.020440  0.020440      4.000000
 -0.020440 -0.040880  0.020440      8.000000
  0.061320  0.020440  0.020440      4.000000
  0.020440  0.061320  0.020440      8.000000
 -0.061320 -0.020440  0.020440      4.000000
 -0.020440 -0.061320  0.020440      8.000000
  0.081759  0.020440  0.020440      4.000000
  0.020440  0.081759  0.020440      8.000000
 -0.081759 -0.020440  0.020440      4.000000
 -0.020440 -0.081759  0.020440      8.000000
  0.040880  0.040880  0.020440      8.000000
  0.020440  0.040880  0.040880      4.000000
 -0.040880 -0.040880  0.020440      8.000000
 -0.020440 -0.040880  0.040880      4.000000
  0.061320  0.040880  0.020440      8.000000
  0.020440  0.061320  0.040880      8.000000
  0.040880  0.020440  0.061320      8.000000
 -0.061320 -0.040880  0.020440      8.000000
 -0.020440 -0.061320  0.040880      8.000000
 -0.040880 -0.020440  0.061320      8.000000
  0.081759  0.040880  0.020440      8.000000
  0.020440  0.081759  0.040880      8.000000
  0.040880  0.020440  0.081759      8.000000
 -0.081759 -0.040880  0.020440      8.000000
 -0.020440 -0.081759  0.040880      8.000000
 -0.040880 -0.020440  0.081759      8.000000
  0.061320  0.061320  0.020440      8.000000
  0.020440  0.061320  0.061320      4.000000
 -0.061320 -0.061320  0.020440      8.000000
 -0.020440 -0.061320  0.061320      4.000000
  0.081759  0.061320  0.020440      8.000000
  0.020440  0.081759  0.061320      8.000000
  0.061320  0.020440  0.081759      8.000000
 -0.081759 -0.061320  0.020440      8.000000
 -0.020440 -0.081759  0.061320      8.000000
 -0.061320 -0.020440  0.081759      8.000000
  0.081759  0.081759  0.020440      8.000000
  0.020440  0.081759  0.081759      4.000000
 -0.081759 -0.081759  0.020440      8.000000
 -0.020440 -0.081759  0.081759      4.000000
  0.040880  0.040880  0.040880      4.000000
 -0.040880 -0.040880  0.040880      4.000000
  0.061320  0.040880  0.040880      4.000000
  0.040880  0.061320  0.040880      8.000000
 -0.061320 -0.040880  0.040880      4.000000
 -0.040880 -0.061320  0.040880      8.000000
  0.081759  0.040880  0.040880      4.000000
  0.040880  0.081759  0.040880      8.000000
 -0.081759 -0.040880  0.040880      4.000000
 -0.040880 -0.081759  0.040880      8.000000
  0.061320  0.061320  0.040880      8.000000
  0.040880  0.061320  0.061320      4.000000
 -0.061320 -0.061320  0.040880      8.000000
 -0.040880 -0.061320  0.061320      4.000000
  0.081759  0.061320  0.040880      8.000000
  0.040880  0.081759  0.061320      8.000000
  0.061320  0.040880  0.081759      8.000000
 -0.081759 -0.061320  0.040880      8.000000
 -0.040880 -0.081759  0.061320      8.000000
 -0.061320 -0.040880  0.081759      8.000000
  0.081759  0.081759  0.040880      8.000000
  0.040880  0.081759  0.081759      4.000000
 -0.081759 -0.081759  0.040880      8.000000
 -0.040880 -0.081759  0.081759      4.000000
  0.061320  0.061320  0.061320      4.000000
 -0.061320 -0.061320  0.061320      4.000000
  0.081759  0.061320  0.061320      4.000000
  0.061320  0.081759  0.061320      8.000000
 -0.081759 -0.061320  0.061320      4.000000
 -0.061320 -0.081759  0.061320      8.000000
  0.081759  0.081759  0.061320      8.000000
  0.061320  0.081759  0.081759      4.000000
 -0.081759 -0.081759  0.061320      8.000000
 -0.061320 -0.081759  0.081759      4.000000
  0.081759  0.081759  0.081759      4.000000
 -0.081759 -0.081759  0.081759      4.000000
 


--------------------------------------------------------------------------------------------------------




 Dimension of arrays:
   k-points           NKPTS =    125   k-points in BZ     NKDIM =    125   number of bands    NBANDS=     24
   number of dos      NEDOS =    301   number of ions     NIONS =      8
   non local maximal  LDIM  =      4   non local SUM 2l+1 LMDIM =      8
   total plane-waves  NPLWV = 110592
   max r-space proj   IRMAX =      1   max aug-charges    IRDMAX=  23216
   dimension x,y,z NGX =    48 NGY =   48 NGZ =   48
   dimension x,y,z NGXF=    96 NGYF=   96 NGZF=   96
   support grid    NGXF=    96 NGYF=   96 NGZF=   96
   ions per type =               8
   NGX,Y,Z   is equivalent  to a cutoff of  14.68, 14.68, 14.68 a.u.
   NGXF,Y,Z  is equivalent  to a cutoff of  29.36, 29.36, 29.36 a.u.

 SYSTEM =  unknown system                          
 POSCAR =  Si8                                     

 Startparameter for this run:
   NWRITE =      2    write-flag & timer
   PREC   = accura    normal or accurate (medium, high low for compatibility)
   ISTART =      0    job   : 0-new  1-cont  2-samecut
   ICHARG =      2    charge: 1-file 2-atom 10-const
   ISPIN  =      2    spin polarized calculation?
   LNONCOLLINEAR =      F non collinear calculations
   LSORBIT =      F    spin-orbit coupling
   INIWAV =      1    electr: 0-lowe 1-rand  2-diag
   LASPH  =      T    aspherical Exc in radial PAW
   METAGGA=      F    non-selfconsistent MetaGGA calc.

 Electronic Relaxation 1
   ENCUT  =  700.0 eV  51.45 Ry    7.17 a.u.  11.73 11.73 11.73*2*pi/ulx,y,z
   ENINI  =  700.0     initial cutoff
   ENAUG  = 1360.0 eV  augmentation charge cutoff
   NELM   =    200;   NELMIN=  2; NELMDL= -5     # of ELM steps 
   EDIFF  = 0.1E-06   stopping-criterion for ELM
   LREAL  =      F    real-space projection
   NLSPLINE    = F    spline interpolate recip. space projectors
   LCOMPAT=      F    compatible to vasp.4.4
   GGA_COMPAT  = T    GGA compatible to vasp.4.4-vasp.4.6
   LMAXPAW     = -100 max onsite density
   LMAXMIX     =    2 max onsite mixed and CHGCAR
   VOSKOWN=      0    Vosko Wilk Nusair interpolation
   ROPT   =    0.00000
 Ionic relaxation
   EDIFFG = 0.1E-05   stopping-criterion for IOM
   NSW    =      0    number of steps for IOM
   NBLOCK =      1;   KBLOCK =      1    inner block; outer block 
   IBRION =     -1    ionic relax: 0-MD 1-quasi-New 2-CG
   NFREE  =      1    steps in history (QN), initial steepest desc. (CG)
   ISIF   =      3    stress and relaxation
   IWAVPR =     10    prediction:  0-non 1-charg 2-wave 3-comb
   ISYM   =      2    0-nonsym 1-usesym 2-fastsym
   LCORR  =      T    Harris-Foulkes like correction to forces

   POTIM  = 0.5000    time-step for ionic-motion
   TEIN   =    0.0    initial temperature
   TEBEG  =    0.0;   TEEND  =   0.0 temperature during run
   SMASS  =  -3.00    Nose mass-parameter (am)
   estimated Nose-frequenzy (Omega)   =  0.10E-29 period in steps = 0.13E+47 mass=  -0.675E-27a.u.
   SCALEE = 1.0000    scale energy and forces
   NPACO  =    256;   APACO  = 16.0  distance and # of slots for P.C.
   PSTRESS=    0.0 pullay stress

  Mass of Ions in am
   POMASS =  28.09
  Ionic Valenz
   ZVAL   =   4.00
  Atomic Wigner-Seitz radii
   RWIGS  =  -1.00
  virtual crystal weights 
   VCA    =   1.00
   NELECT =      32.0000    total number of electrons
   NUPDOWN=      -1.0000    fix difference up-down

 DOS related values:
   EMIN   =  10.00;   EMAX   =-10.00  energy-range for DOS
   EFERMI =   0.00
   ISMEAR =     0;   SIGMA  =   0.05  broadening in eV -4-tet -1-fermi 0-gaus

 Electronic relaxation 2 (details)
   IALGO  =     38    algorithm
   LDIAG  =      T    sub-space diagonalisation (order eigenvalues)
   LSUBROT=      F    optimize rotation matrix (better conditioning)
   TURBO    =      0    0=normal 1=particle mesh
   IRESTART =      0    0=no restart 2=restart with 2 vectors
   NREBOOT  =      0    no. of reboots
   NMIN     =      0    reboot dimension
   EREF     =   0.00    reference energy to select bands
   IMIX   =      4    mixing-type and parameters
     AMIX     =   0.40;   BMIX     =  1.00
     AMIX_MAG =   1.60;   BMIX_MAG =  1.00
     AMIN     =   0.10
     WC   =   100.;   INIMIX=   1;  MIXPRE=   1;  MAXMIX= -45

 Intra band minimization:
   WEIMIN = 0.0000     energy-eigenvalue tresh-hold
   EBREAK =  0.10E-08  absolut break condition
   DEPER  =   0.30     relativ break condition  

   TIME   =   0.40     timestep for ELM

  volume/ion in A,a.u.               =      20.08       135.50
  Fermi-wavevector in a.u.,A,eV,Ry     =   0.956119  1.806803 12.437957  0.914164
  Thomas-Fermi vector in A             =   2.085019
 
 Write flags
   LWAVE        =      F    write WAVECAR
   LDOWNSAMPLE  =      F    k-point downsampling of WAVECAR
   LCHARG       =      F    write CHGCAR
   LVTOT        =      T    write LOCPOT, total local potential
   LVHAR        =      F    write LOCPOT, Hartree potential only
   LELF         =      F    write electronic localiz. function (ELF)
   LORBIT       =     11    0 simple, 1 ext, 2 COOP (PROOUT), +10 PAW based schemes


 Dipole corrections
   LMONO  =      F    monopole corrections only (constant potential shift)
   LDIPOL =      F    correct potential (dipole corrections)
   IDIPOL =      0    1-x, 2-y, 3-z, 4-all directions 
   EPSILON=  1.0000000 bulk dielectric constant

 Exchange correlation treatment:
   GGA     =    PS    GGA type
   LEXCH   =    14    internal setting for exchange type
   VOSKOWN=      0    Vosko Wilk Nusair interpolation
   LHFCALC =     F    Hartree Fock is set to
   LHFONE  =     F    Hartree Fock one center treatment
   AEXX    =    0.0000 exact exchange contribution

 Linear response parameters
   LEPSILON=     F    determine dielectric tensor
   LRPA    =     F    only Hartree local field effects (RPA)
   LNABLA  =     F    use nabla operator in PAW spheres
   LVEL    =     F    velocity operator in full k-point grid
   LINTERFAST=   F  fast interpolation
   KINTER  =     0    interpolate to denser k-point grid
   CSHIFT  =0.1000    complex shift for real part using Kramers Kronig
   OMEGAMAX=  -1.0    maximum frequency
   DEG_THRESHOLD= 0.2000000E-02 threshold for treating states as degnerate
   RTIME   =   -0.100 relaxation time in fs
  (WPLASMAI=    0.000 imaginary part of plasma frequency in eV, 0.658/RTIME)
   DFIELD  = 0.0000000 0.0000000 0.0000000 field for delta impulse in time
 
 Orbital magnetization related:
   ORBITALMAG=     F  switch on orbital magnetization
   LCHIMAG   =     F  perturbation theory with respect to B field
   DQ        =  0.001000  dq finite difference perturbation B field
   LLRAUG    =     F  two centre corrections for induced B field



--------------------------------------------------------------------------------------------------------


 Static calculation
 charge density and potential will be updated during run
 spin polarized calculation
 Variant of blocked Davidson
 Davidson routine will perform the subspace rotation
 perform sub-space diagonalisation
    after iterative eigenvector-optimisation
 modified Broyden-mixing scheme, WC =      100.0
 initial mixing is a Kerker type mixing with AMIX =  0.4000 and BMIX =      1.0000
 Hartree-type preconditioning will be used
 using additional bands            8
 reciprocal scheme for non local part
 use partial core corrections
 calculate Harris-corrections to forces 
   (improved forces if not selfconsistent)
 use gradient corrections 
 use of overlap-Matrix (Vanderbilt PP)
 Gauss-broadening in eV      SIGMA  =   0.05


--------------------------------------------------------------------------------------------------------


  energy-cutoff  :      700.00
  volume of cell :      160.63
      direct lattice vectors                 reciprocal lattice vectors
     5.435999740 -0.000000000 -0.000000000     0.183958802  0.000000000 -0.000000000
    -0.000000000  5.435999740  0.000000000     0.000000000  0.183958802 -0.000000000
     0.000000000  0.000000000  5.435999740     0.000000000 -0.000000000  0.183958802

  length of vectors
     5.435999740  5.435999740  5.435999740     0.183958802  0.183958802  0.183958802


 
 k-points in units of 2pi/SCALE and weight: pymatgen with grid density = 7000 / numb
   0.00000000  0.00000000  0.00000000       0.001
   0.02043987  0.00000000 -0.00000000       0.003
   0.00000000  0.02043987 -0.00000000       0.005
   0.04087973  0.00000000 -0.00000000       0.003
   0.00000000  0.04087973 -0.00000000       0.005
   0.06131960  0.00000000 -0.00000000       0.003
   0.00000000  0.06131960 -0.00000000       0.005
   0.08175947  0.00000000 -0.00000000       0.003
   0.00000000  0.08175947 -0.00000000       0.005
   0.02043987  0.02043987 -0.00000000       0.011
   0.00000000  0.02043987  0.02043987       0.003
  -0.00000000 -0.02043987  0.02043987       0.003
   0.04087973  0.02043987 -0.00000000       0.011
   0.00000000  0.04087973  0.02043987       0.005
   0.02043987 -0.00000000  0.04087973       0.011
  -0.00000000 -0.04087973  0.02043987       0.005
   0.06131960  0.02043987 -0.00000000       0.011
   0.00000000  0.06131960  0.02043987       0.005
   0.02043987 -0.00000000  0.06131960       0.011
  -0.00000000 -0.06131960  0.02043987       0.005
   0.08175947  0.02043987 -0.00000000       0.011
   0.00000000  0.08175947  0.02043987       0.005
   0.02043987 -0.00000000  0.08175947       0.011
  -0.00000000 -0.08175947  0.02043987       0.005
   0.04087973  0.04087973 -0.00000000       0.011
   0.00000000  0.04087973  0.04087973       0.003
   0.00000000 -0.04087973  0.04087973       0.003
   0.06131960  0.04087973 -0.00000000       0.011
   0.00000000  0.06131960  0.04087973       0.005
   0.04087973 -0.00000000  0.06131960       0.011
  -0.00000000 -0.06131960  0.04087973       0.005
   0.08175947  0.04087973 -0.00000000       0.011
   0.00000000  0.08175947  0.04087973       0.005
   0.04087973 -0.00000000  0.08175947       0.011
  -0.00000000 -0.08175947  0.04087973       0.005
   0.06131960  0.06131960 -0.00000000       0.011
   0.00000000  0.06131960  0.06131960       0.003
  -0.00000000 -0.06131960  0.06131960       0.003
   0.08175947  0.06131960 -0.00000000       0.011
   0.00000000  0.08175947  0.06131960       0.005
   0.06131960 -0.00000000  0.08175947       0.011
  -0.00000000 -0.08175947  0.06131960       0.005
   0.08175947  0.08175947 -0.00000000       0.011
   0.00000000  0.08175947  0.08175947       0.003
   0.00000000 -0.08175947  0.08175947       0.003
   0.02043987  0.02043987  0.02043987       0.005
  -0.02043987 -0.02043987  0.02043987       0.005
   0.04087973  0.02043987  0.02043987       0.005
   0.02043987  0.04087973  0.02043987       0.011
  -0.04087973 -0.02043987  0.02043987       0.005
  -0.02043987 -0.04087973  0.02043987       0.011
   0.06131960  0.02043987  0.02043987       0.005
   0.02043987  0.06131960  0.02043987       0.011
  -0.06131960 -0.02043987  0.02043987       0.005
  -0.02043987 -0.06131960  0.02043987       0.011
   0.08175947  0.02043987  0.02043987       0.005
   0.02043987  0.08175947  0.02043987       0.011
  -0.08175947 -0.02043987  0.02043987       0.005
  -0.02043987 -0.08175947  0.02043987       0.011
   0.04087973  0.04087973  0.02043987       0.011
   0.02043987  0.04087973  0.04087973       0.005
  -0.04087973 -0.04087973  0.02043987       0.011
  -0.02043987 -0.04087973  0.04087973       0.005
   0.06131960  0.04087973  0.02043987       0.011
   0.02043987  0.06131960  0.04087973       0.011
   0.04087973  0.02043987  0.06131960       0.011
  -0.06131960 -0.04087973  0.02043987       0.011
  -0.02043987 -0.06131960  0.04087973       0.011
  -0.04087973 -0.02043987  0.06131960       0.011
   0.08175947  0.04087973  0.02043987       0.011
   0.02043987  0.08175947  0.04087973       0.011
   0.04087973  0.02043987  0.08175947       0.011
  -0.08175947 -0.04087973  0.02043987       0.011
  -0.02043987 -0.08175947  0.04087973       0.011
  -0.04087973 -0.02043987  0.08175947       0.011
   0.06131960  0.06131960  0.02043987       0.011
   0.02043987  0.06131960  0.06131960       0.005
  -0.06131960 -0.06131960  0.02043987       0.011
  -0.02043987 -0.06131960  0.06131960       0.005
   0.08175947  0.06131960  0.02043987       0.011
   0.02043987  0.08175947  0.06131960       0.011
   0.06131960  0.02043987  0.08175947       0.011
  -0.08175947 -0.06131960  0.02043987       0.011
  -0.02043987 -0.08175947  0.06131960       0.011
  -0.06131960 -0.02043987  0.08175947       0.011
   0.08175947  0.08175947  0.02043987       0.011
   0.02043987  0.08175947  0.08175947       0.005
  -0.08175947 -0.08175947  0.02043987       0.011
  -0.02043987 -0.08175947  0.08175947       0.005
   0.04087973  0.04087973  0.04087973       0.005
  -0.04087973 -0.04087973  0.04087973       0.005
   0.06131960  0.04087973  0.04087973       0.005
   0.04087973  0.06131960  0.04087973       0.011
  -0.06131960 -0.04087973  0.04087973       0.005
  -0.04087973 -0.06131960  0.04087973       0.011
   0.08175947  0.04087973  0.04087973       0.005
   0.04087973  0.08175947  0.04087973       0.011
  -0.08175947 -0.04087973  0.04087973       0.005
  -0.04087973 -0.08175947  0.04087973       0.011
   0.06131960  0.06131960  0.04087973       0.011
   0.04087973  0.06131960  0.06131960       0.005
  -0.06131960 -0.06131960  0.04087973       0.011
  -0.04087973 -0.06131960  0.06131960       0.005
   0.08175947  0.06131960  0.04087973       0.011
   0.04087973  0.08175947  0.06131960       0.011
   0.06131960  0.04087973  0.08175947       0.011
  -0.08175947 -0.06131960  0.04087973       0.011
  -0.04087973 -0.08175947  0.06131960       0.011
  -0.06131960 -0.04087973  0.08175947       0.011
   0.08175947  0.08175947  0.04087973       0.011
   0.04087973  0.08175947  0.08175947       0.005
  -0.08175947 -0.08175947  0.04087973       0.011
  -0.04087973 -0.08175947  0.08175947       0.005
   0.06131960  0.06131960  0.06131960       0.005
  -0.06131960 -0.06131960  0.06131960       0.005
   0.08175947  0.06131960  0.06131960       0.005
   0.06131960  0.08175947  0.06131960       0.011
  -0.08175947 -0.06131960  0.06131960       0.005
  -0.06131960 -0.08175947  0.06131960       0.011
   0.08175947  0.08175947  0.06131960       0.011
   0.06131960  0.08175947  0.08175947       0.005
  -0.08175947 -0.08175947  0.06131960       0.011
  -0.06131960 -0.08175947  0.08175947       0.005
   0.08175947  0.08175947  0.08175947       0.005
  -0.08175947 -0.08175947  0.08175947       0.005
 
 k-points in reciprocal lattice and weights: pymatgen with grid density = 7000 / numb
   0.00000000  0.00000000  0.00000000       0.001
   0.11111111 -0.00000000 -0.00000000       0.003
   0.00000000  0.11111111  0.00000000       0.005
   0.22222222 -0.00000000 -0.00000000       0.003
  -0.00000000  0.22222222  0.00000000       0.005
   0.33333333 -0.00000000 -0.00000000       0.003
  -0.00000000  0.33333333  0.00000000       0.005
   0.44444444 -0.00000000 -0.00000000       0.003
  -0.00000000  0.44444444  0.00000000       0.005
   0.11111111  0.11111111 -0.00000000       0.011
  -0.00000000  0.11111111  0.11111111       0.003
  -0.00000000 -0.11111111  0.11111111       0.003
   0.22222222  0.11111111 -0.00000000       0.011
  -0.00000000  0.22222222  0.11111111       0.005
   0.11111111  0.00000000  0.22222222       0.011
  -0.00000000 -0.22222222  0.11111111       0.005
   0.33333333  0.11111111 -0.00000000       0.011
  -0.00000000  0.33333333  0.11111111       0.005
   0.11111111 -0.00000000  0.33333333       0.011
   0.00000000 -0.33333333  0.11111111       0.005
   0.44444444  0.11111111 -0.00000000       0.011
  -0.00000000  0.44444444  0.11111111       0.005
   0.11111111  0.00000000  0.44444444       0.011
  -0.00000000 -0.44444444  0.11111111       0.005
   0.22222222  0.22222222 -0.00000000       0.011
  -0.00000000  0.22222222  0.22222222       0.003
  -0.00000000 -0.22222222  0.22222222       0.003
   0.33333333  0.22222222 -0.00000000       0.011
  -0.00000000  0.33333333  0.22222222       0.005
   0.22222222  0.00000000  0.33333333       0.011
  -0.00000000 -0.33333333  0.22222222       0.005
   0.44444444  0.22222222 -0.00000000       0.011
  -0.00000000  0.44444444  0.22222222       0.005
   0.22222222  0.00000000  0.44444444       0.011
   0.00000000 -0.44444444  0.22222222       0.005
   0.33333333  0.33333333 -0.00000000       0.011
   0.00000000  0.33333333  0.33333333       0.003
  -0.00000000 -0.33333333  0.33333333       0.003
   0.44444444  0.33333333 -0.00000000       0.011
  -0.00000000  0.44444444  0.33333333       0.005
   0.33333333  0.00000000  0.44444444       0.011
  -0.00000000 -0.44444444  0.33333333       0.005
   0.44444444  0.44444444 -0.00000000       0.011
  -0.00000000  0.44444444  0.44444444       0.003
  -0.00000000 -0.44444444  0.44444444       0.003
   0.11111111  0.11111111  0.11111111       0.005
  -0.11111111 -0.11111111  0.11111111       0.005
   0.22222222  0.11111111  0.11111111       0.005
   0.11111111  0.22222222  0.11111111       0.011
  -0.22222222 -0.11111111  0.11111111       0.005
  -0.11111111 -0.22222222  0.11111111       0.011
   0.33333333  0.11111111  0.11111111       0.005
   0.11111111  0.33333333  0.11111111       0.011
  -0.33333333 -0.11111111  0.11111111       0.005
  -0.11111111 -0.33333333  0.11111111       0.011
   0.44444444  0.11111111  0.11111111       0.005
   0.11111111  0.44444444  0.11111111       0.011
  -0.44444444 -0.11111111  0.11111111       0.005
  -0.11111111 -0.44444444  0.11111111       0.011
   0.22222222  0.22222222  0.11111111       0.011
   0.11111111  0.22222222  0.22222222       0.005
  -0.22222222 -0.22222222  0.11111111       0.011
  -0.11111111 -0.22222222  0.22222222       0.005
   0.33333333  0.22222222  0.11111111       0.011
   0.11111111  0.33333333  0.22222222       0.011
   0.22222222  0.11111111  0.33333333       0.011
  -0.33333333 -0.22222222  0.11111111       0.011
  -0.11111111 -0.33333333  0.22222222       0.011
  -0.22222222 -0.11111111  0.33333333       0.011
   0.44444444  0.22222222  0.11111111       0.011
   0.11111111  0.44444444  0.22222222       0.011
   0.22222222  0.11111111  0.44444444       0.011
  -0.44444444 -0.22222222  0.11111111       0.011
  -0.11111111 -0.44444444  0.22222222       0.011
  -0.22222222 -0.11111111  0.44444444       0.011
   0.33333333  0.33333333  0.11111111       0.011
   0.11111111  0.33333333  0.33333333       0.005
  -0.33333333 -0.33333333  0.11111111       0.011
  -0.11111111 -0.33333333  0.33333333       0.005
   0.44444444  0.33333333  0.11111111       0.011
   0.11111111  0.44444444  0.33333333       0.011
   0.33333333  0.11111111  0.44444444       0.011
  -0.44444444 -0.33333333  0.11111111       0.011
  -0.11111111 -0.44444444  0.33333333       0.011
  -0.33333333 -0.11111111  0.44444444       0.011
   0.44444444  0.44444444  0.11111111       0.011
   0.11111111  0.44444444  0.44444444       0.005
  -0.44444444 -0.44444444  0.11111111       0.011
  -0.11111111 -0.44444444  0.44444444       0.005
   0.22222222  0.22222222  0.22222222       0.005
  -0.22222222 -0.22222222  0.22222222       0.005
   0.33333333  0.22222222  0.22222222       0.005
   0.22222222  0.33333333  0.22222222       0.011
  -0.33333333 -0.22222222  0.22222222       0.005
  -0.22222222 -0.33333333  0.22222222       0.011
   0.44444444  0.22222222  0.22222222       0.005
   0.22222222  0.44444444  0.22222222       0.011
  -0.44444444 -0.22222222  0.22222222       0.005
  -0.22222222 -0.44444444  0.22222222       0.011
   0.33333333  0.33333333  0.22222222       0.011
   0.22222222  0.33333333  0.33333333       0.005
  -0.33333333 -0.33333333  0.22222222       0.011
  -0.22222222 -0.33333333  0.33333333       0.005
   0.44444444  0.33333333  0.22222222       0.011
   0.22222222  0.44444444  0.33333333       0.011
   0.33333333  0.22222222  0.44444444       0.011
  -0.44444444 -0.33333333  0.22222222       0.011
  -0.22222222 -0.44444444  0.33333333       0.011
  -0.33333333 -0.22222222  0.44444444       0.011
   0.44444444  0.44444444  0.22222222       0.011
   0.22222222  0.44444444  0.44444444       0.005
  -0.44444444 -0.44444444  0.22222222       0.011
  -0.22222222 -0.44444444  0.44444444       0.005
   0.33333333  0.33333333  0.33333333       0.005
  -0.33333333 -0.33333333  0.33333333       0.005
   0.44444444  0.33333333  0.33333333       0.005
   0.33333333  0.44444444  0.33333333       0.011
  -0.44444444 -0.33333333  0.33333333       0.005
  -0.33333333 -0.44444444  0.33333333       0.011
   0.44444444  0.44444444  0.33333333       0.011
   0.33333333  0.44444444  0.44444444       0.005
  -0.44444444 -0.44444444  0.33333333       0.011
  -0.33333333 -0.44444444  0.44444444       0.005
   0.44444444  0.44444444  0.44444444       0.005
  -0.44444444 -0.44444444  0.44444444       0.005
 
 position of ions in fractional coordinates (direct lattice) 
   0.00183959  0.00000000  0.00000000
   0.00000000  0.50000000  0.50000000
   0.50000000  0.00000000  0.50000000
   0.50000000  0.50000000  0.00000000
   0.25000000  0.25000000  0.25000000
   0.25000000  0.75000000  0.75000000
   0.75000000  0.25000000  0.75000000
   0.75000000  0.75000000  0.25000000
 
 position of ions in cartesian coordinates  (Angst):
   0.01000000 -0.00000000 -0.00000000
   0.00000000  2.71799987  2.71799987
   2.71799987  0.00000000  2.71799987
   2.71799987  2.71799987  0.00000000
   1.35899993  1.35899993  1.35899993
   1.35899993  4.07699980  4.07699980
   4.07699980  1.35899993  4.07699980
   4.07699980  4.07699980  1.35899993
 


--------------------------------------------------------------------------------------------------------


 k-point   1 :   0.0000 0.0000 0.0000  plane waves:    6763
 k-point   2 :   0.1111-0.0000-0.0000  plane waves:    6779
 k-point   3 :   0.0000 0.1111 0.0000  plane waves:    6779
 k-point   4 :   0.2222-0.0000-0.0000  plane waves:    6775
 k-point   5 :  -0.0000 0.2222 0.0000  plane waves:    6775
 k-point   6 :   0.3333-0.0000-0.0000  plane waves:    6764
 k-point   7 :  -0.0000 0.3333 0.0000  plane waves:    6764
 k-point   8 :   0.4444-0.0000-0.0000  plane waves:    6768
 k-point   9 :  -0.0000 0.4444 0.0000  plane waves:    6768
 k-point  10 :   0.1111 0.1111-0.0000  plane waves:    6769
 k-point  11 :  -0.0000 0.1111 0.1111  plane waves:    6769
 k-point  12 :  -0.0000-0.1111 0.1111  plane waves:    6769
 k-point  13 :   0.2222 0.1111-0.0000  plane waves:    6770
 k-point  14 :  -0.0000 0.2222 0.1111  plane waves:    6770
 k-point  15 :   0.1111 0.0000 0.2222  plane waves:    6770
 k-point  16 :  -0.0000-0.2222 0.1111  plane waves:    6770
 k-point  17 :   0.3333 0.1111-0.0000  plane waves:    6756
 k-point  18 :  -0.0000 0.3333 0.1111  plane waves:    6756
 k-point  19 :   0.1111-0.0000 0.3333  plane waves:    6756
 k-point  20 :   0.0000-0.3333 0.1111  plane waves:    6756
 k-point  21 :   0.4444 0.1111-0.0000  plane waves:    6738
 k-point  22 :  -0.0000 0.4444 0.1111  plane waves:    6738
 k-point  23 :   0.1111 0.0000 0.4444  plane waves:    6738
 k-point  24 :  -0.0000-0.4444 0.1111  plane waves:    6738
 k-point  25 :   0.2222 0.2222-0.0000  plane waves:    6759
 k-point  26 :  -0.0000 0.2222 0.2222  plane waves:    6759
 k-point  27 :  -0.0000-0.2222 0.2222  plane waves:    6759
 k-point  28 :   0.3333 0.2222-0.0000  plane waves:    6760
 k-point  29 :  -0.0000 0.3333 0.2222  plane waves:    6760
 k-point  30 :   0.2222 0.0000 0.3333  plane waves:    6760
 k-point  31 :  -0.0000-0.3333 0.2222  plane waves:    6760
 k-point  32 :   0.4444 0.2222-0.0000  plane waves:    6741
 k-point  33 :  -0.0000 0.4444 0.2222  plane waves:    6741
 k-point  34 :   0.2222 0.0000 0.4444  plane waves:    6741
 k-point  35 :   0.0000-0.4444 0.2222  plane waves:    6741
 k-point  36 :   0.3333 0.3333-0.0000  plane waves:    6740
 k-point  37 :   0.0000 0.3333 0.3333  plane waves:    6740
 k-point  38 :  -0.0000-0.3333 0.3333  plane waves:    6740
 k-point  39 :   0.4444 0.3333-0.0000  plane waves:    6746
 k-point  40 :  -0.0000 0.4444 0.3333  plane waves:    6746
 k-point  41 :   0.3333 0.0000 0.4444  plane waves:    6746
 k-point  42 :  -0.0000-0.4444 0.3333  plane waves:    6746
 k-point  43 :   0.4444 0.4444-0.0000  plane waves:    6766
 k-point  44 :  -0.0000 0.4444 0.4444  plane waves:    6766
 k-point  45 :  -0.0000-0.4444 0.4444  plane waves:    6766
 k-point  46 :   0.1111 0.1111 0.1111  plane waves:    6772
 k-point  47 :  -0.1111-0.1111 0.1111  plane waves:    6772
 k-point  48 :   0.2222 0.1111 0.1111  plane waves:    6778
 k-point  49 :   0.1111 0.2222 0.1111  plane waves:    6778
 k-point  50 :  -0.2222-0.1111 0.1111  plane waves:    6778
 k-point  51 :  -0.1111-0.2222 0.1111  plane waves:    6778
 k-point  52 :   0.3333 0.1111 0.1111  plane waves:    6743
 k-point  53 :   0.1111 0.3333 0.1111  plane waves:    6743
 k-point  54 :  -0.3333-0.1111 0.1111  plane waves:    6743
 k-point  55 :  -0.1111-0.3333 0.1111  plane waves:    6743
 k-point  56 :   0.4444 0.1111 0.1111  plane waves:    6750
 k-point  57 :   0.1111 0.4444 0.1111  plane waves:    6750
 k-point  58 :  -0.4444-0.1111 0.1111  plane waves:    6750
 k-point  59 :  -0.1111-0.4444 0.1111  plane waves:    6750
 k-point  60 :   0.2222 0.2222 0.1111  plane waves:    6751
 k-point  61 :   0.1111 0.2222 0.2222  plane waves:    6751
 k-point  62 :  -0.2222-0.2222 0.1111  plane waves:    6751
 k-point  63 :  -0.1111-0.2222 0.2222  plane waves:    6751
 k-point  64 :   0.3333 0.2222 0.1111  plane waves:    6754
 k-point  65 :   0.1111 0.3333 0.2222  plane waves:    6754
 k-point  66 :   0.2222 0.1111 0.3333  plane waves:    6754
 k-point  67 :  -0.3333-0.2222 0.1111  plane waves:    6754
 k-point  68 :  -0.1111-0.3333 0.2222  plane waves:    6754
 k-point  69 :  -0.2222-0.1111 0.3333  plane waves:    6754
 k-point  70 :   0.4444 0.2222 0.1111  plane waves:    6744
 k-point  71 :   0.1111 0.4444 0.2222  plane waves:    6744
 k-point  72 :   0.2222 0.1111 0.4444  plane waves:    6744
 k-point  73 :  -0.4444-0.2222 0.1111  plane waves:    6744
 k-point  74 :  -0.1111-0.4444 0.2222  plane waves:    6744
 k-point  75 :  -0.2222-0.1111 0.4444  plane waves:    6744
 k-point  76 :   0.3333 0.3333 0.1111  plane waves:    6752
 k-point  77 :   0.1111 0.3333 0.3333  plane waves:    6752
 k-point  78 :  -0.3333-0.3333 0.1111  plane waves:    6752
 k-point  79 :  -0.1111-0.3333 0.3333  plane waves:    6752
 k-point  80 :   0.4444 0.3333 0.1111  plane waves:    6753
 k-point  81 :   0.1111 0.4444 0.3333  plane waves:    6753
 k-point  82 :   0.3333 0.1111 0.4444  plane waves:    6753
 k-point  83 :  -0.4444-0.3333 0.1111  plane waves:    6753
 k-point  84 :  -0.1111-0.4444 0.3333  plane waves:    6753
 k-point  85 :  -0.3333-0.1111 0.4444  plane waves:    6753
 k-point  86 :   0.4444 0.4444 0.1111  plane waves:    6759
 k-point  87 :   0.1111 0.4444 0.4444  plane waves:    6759
 k-point  88 :  -0.4444-0.4444 0.1111  plane waves:    6759
 k-point  89 :  -0.1111-0.4444 0.4444  plane waves:    6759
 k-point  90 :   0.2222 0.2222 0.2222  plane waves:    6742
 k-point  91 :  -0.2222-0.2222 0.2222  plane waves:    6742
 k-point  92 :   0.3333 0.2222 0.2222  plane waves:    6746
 k-point  93 :   0.2222 0.3333 0.2222  plane waves:    6746
 k-point  94 :  -0.3333-0.2222 0.2222  plane waves:    6746
 k-point  95 :  -0.2222-0.3333 0.2222  plane waves:    6746
 k-point  96 :   0.4444 0.2222 0.2222  plane waves:    6766
 k-point  97 :   0.2222 0.4444 0.2222  plane waves:    6766
 k-point  98 :  -0.4444-0.2222 0.2222  plane waves:    6766
 k-point  99 :  -0.2222-0.4444 0.2222  plane waves:    6766
 k-point 100 :   0.3333 0.3333 0.2222  plane waves:    6760
 k-point 101 :   0.2222 0.3333 0.3333  plane waves:    6760
 k-point 102 :  -0.3333-0.3333 0.2222  plane waves:    6760
 k-point 103 :  -0.2222-0.3333 0.3333  plane waves:    6760
 k-point 104 :   0.4444 0.3333 0.2222  plane waves:    6748
 k-point 105 :   0.2222 0.4444 0.3333  plane waves:    6748
 k-point 106 :   0.3333 0.2222 0.4444  plane waves:    6748
 k-point 107 :  -0.4444-0.3333 0.2222  plane waves:    6748
 k-point 108 :  -0.2222-0.4444 0.3333  plane waves:    6748
 k-point 109 :  -0.3333-0.2222 0.4444  plane waves:    6748
 k-point 110 :   0.4444 0.4444 0.2222  plane waves:    6758
 k-point 111 :   0.2222 0.4444 0.4444  plane waves:    6758
 k-point 112 :  -0.4444-0.4444 0.2222  plane waves:    6758
 k-point 113 :  -0.2222-0.4444 0.4444  plane waves:    6758
 k-point 114 :   0.3333 0.3333 0.3333  plane waves:    6755
 k-point 115 :  -0.3333-0.3333 0.3333  plane waves:    6755
 k-point 116 :   0.4444 0.3333 0.3333  plane waves:    6750
 k-point 117 :   0.3333 0.4444 0.3333  plane waves:    6750
 k-point 118 :  -0.4444-0.3333 0.3333  plane waves:    6750
 k-point 119 :  -0.3333-0.4444 0.3333  plane waves:    6750
 k-point 120 :   0.4444 0.4444 0.3333  plane waves:    6772
 k-point 121 :   0.3333 0.4444 0.4444  plane waves:    6772
 k-point 122 :  -0.4444-0.4444 0.3333  plane waves:    6772
 k-point 123 :  -0.3333-0.4444 0.4444  plane waves:    6772
 k-point 124 :   0.4444 0.4444 0.4444  plane waves:    6770
 k-point 125 :  -0.4444-0.4444 0.4444  plane waves:    6770

 maximum and minimum number of plane-waves per node :       215      171

 maximum number of plane-waves:      6779
 maximum index in each direction: 
   IXMAX=   12   IYMAX=   12   IZMAX=   11
   IXMIN=  -12   IYMIN=  -12   IZMIN=  -12


 parallel 3D FFT for wavefunctions:
    minimum data exchange during FFTs selected (reduces bandwidth)
 parallel 3D FFT for charge:
    minimum data exchange during FFTs selected (reduces bandwidth)


 total amount of memory used by VASP MPI-rank0    38013. kBytes
=======================================================================

   base      :      30000. kBytes
   nonl-proj :       1593. kBytes
   fftplans  :        472. kBytes
   grid      :       1046. kBytes
   one-center:          6. kBytes
   wavefun   :       4896. kBytes
 
     INWAV:  cpu time    0.0000: real time    0.0000
 Broyden mixing: mesh for mixing (old mesh)
   NGX = 23   NGY = 23   NGZ = 23
  (NGX  = 96   NGY  = 96   NGZ  = 96)
  gives a total of  12167 points

 initial charge density was supplied:
 charge density of overlapping atoms calculated
 number of electron      32.0000000 magnetization       4.8000000
 keeping initial charge density in first step


--------------------------------------------------------------------------------------------------------


 Maximum index for augmentation-charges          965 (set IRDMAX)


--------------------------------------------------------------------------------------------------------


 First call to EWALD:  gamma=   0.326
 Maximum number of real-space cells 3x 3x 3
 Maximum number of reciprocal cells 3x 3x 3

    FEWALD:  cpu time    0.0020: real time    0.0020


--------------------------------------- Iteration      1(   1)  ---------------------------------------


    POTLOK:  cpu time    0.0272: real time    0.0293
    SETDIJ:  cpu time    0.1931: real time    0.1935
     EDDAV:  cpu time    2.4693: real time    2.4713
       DOS:  cpu time    0.0053: real time    0.0053
    --------------------------------------------
      LOOP:  cpu time    2.6950: real time    2.6994

 eigenvalue-minimisations  : 12000
 total energy-change (2. order) : 0.8273962E+02  (-0.1432340E+04)
 number of electron      32.0000000 magnetization       4.8000000
 augmentation part       32.0000000 magnetization       4.8000000

 Free energy of the ion-electron system (eV)
  ---------------------------------------------------
  alpha Z        PSCENC =        13.41208190
  Ewald energy   TEWEN  =      -913.24296298
  -Hartree energ DENC   =       -44.20443972
  -exchange      EXHF   =         0.00000000
  -V(xc)+E(xc)   XCENC  =       -69.56819799
  PAW double counting   =       699.59382407     -561.27664189
  entropy T*S    EENTRO =        -0.00199274
  eigenvalues    EBANDS =       137.42145198
  atomic energy  EATOM  =       820.60650216
  Solvation  Ediel_sol  =         0.00000000
  ---------------------------------------------------
  free energy    TOTEN  =        82.73962480 eV

  energy without entropy =       82.74161754  energy(sigma->0) =       82.74062117


--------------------------------------------------------------------------------------------------------




--------------------------------------- Iteration      1(   2)  ---------------------------------------


     EDDAV:  cpu time    2.8277: real time    2.8282
       DOS:  cpu time    0.0057: real time    0.0057
    --------------------------------------------
      LOOP:  cpu time    2.8334: real time    2.8339

 eigenvalue-minimisations  : 15640
 total energy-change (2. order) :-0.1225650E+03  (-0.1133984E+03)
 number of electron      32.0000000 magnetization       4.8000000
 augmentation part       32.0000000 magnetization       4.8000000

 Free energy of the ion-electron system (eV)
  ---------------------------------------------------
  alpha Z        PSCENC =        13.41208190
  Ewald energy   TEWEN  =      -913.24296298
  -Hartree energ DENC   =       -44.20443972
  -exchange      EXHF   =         0.00000000
  -V(xc)+E(xc)   XCENC  =       -69.56819799
  PAW double counting   =       699.59382407     -561.27664189
  entropy T*S    EENTRO =        -0.00036436
  eigenvalues    EBANDS =        14.85479961
  atomic energy  EATOM  =       820.60650216
  Solvation  Ediel_sol  =         0.00000000
  ---------------------------------------------------
  free energy    TOTEN  =       -39.82539918 eV

  energy without entropy =      -39.82503483  energy(sigma->0) =      -39.82521700


--------------------------------------------------------------------------------------------------------




--------------------------------------- Iteration      1(   3)  ---------------------------------------


     EDDAV:  cpu time    2.8419: real time    2.8417
       DOS:  cpu time    0.0051: real time    0.0051
    --------------------------------------------
      LOOP:  cpu time    2.8470: real time    2.8468

 eigenvalue-minimisations  : 15720
 total energy-change (2. order) :-0.6163403E+01  (-0.6058093E+01)
 number of electron      32.0000000 magnetization       4.8000000
 augmentation part       32.0000000 magnetization       4.8000000

 Free energy of the ion-electron system (eV)
  ---------------------------------------------------
  alpha Z        PSCENC =        13.41208190
  Ewald energy   TEWEN  =      -913.24296298
  -Hartree energ DENC   =       -44.20443972
  -exchange      EXHF   =         0.00000000
  -V(xc)+E(xc)   XCENC  =       -69.56819799
  PAW double counting   =       699.59382407     -561.27664189
  entropy T*S    EENTRO =        -0.00000267
  eigenvalues    EBANDS =         8.69103513
  atomic energy  EATOM  =       820.60650216
  Solvation  Ediel_sol  =         0.00000000
  ---------------------------------------------------
  free energy    TOTEN  =       -45.98880198 eV

  energy without entropy =      -45.98879931  energy(sigma->0) =      -45.98880064


--------------------------------------------------------------------------------------------------------




--------------------------------------- Iteration      1(   4)  ---------------------------------------


     EDDAV:  cpu time    2.8497: real time    2.8499
       DOS:  cpu time    0.0053: real time    0.0053
    --------------------------------------------
      LOOP:  cpu time    2.8550: real time    2.8552

 eigenvalue-minimisations  : 15072
 total energy-change (2. order) :-0.1129994E+00  (-0.1127310E+00)
 number of electron      32.0000000 magnetization       4.8000000
 augmentation part       32.0000000 magnetization       4.8000000

 Free energy of the ion-electron system (eV)
  ---------------------------------------------------
  alpha Z        PSCENC =        13.41208190
  Ewald energy   TEWEN  =      -913.24296298
  -Hartree energ DENC   =       -44.20443972
  -exchange      EXHF   =         0.00000000
  -V(xc)+E(xc)   XCENC  =       -69.56819799
  PAW double counting   =       699.59382407     -561.27664189
  entropy T*S    EENTRO =        -0.00000196
  eigenvalues    EBANDS =         8.57803499
  atomic energy  EATOM  =       820.60650216
  Solvation  Ediel_sol  =         0.00000000
  ---------------------------------------------------
  free energy    TOTEN  =       -46.10180141 eV

  energy without entropy =      -46.10179946  energy(sigma->0) =      -46.10180044


--------------------------------------------------------------------------------------------------------




--------------------------------------- Iteration      1(   5)  ---------------------------------------


     EDDAV:  cpu time    2.8908: real time    2.8909
       DOS:  cpu time    0.0054: real time    0.0054
    CHARGE:  cpu time    0.0990: real time    0.0993
    MIXING:  cpu time    0.0013: real time    0.0019
    --------------------------------------------
      LOOP:  cpu time    2.9965: real time    2.9975

 eigenvalue-minimisations  : 15744
 total energy-change (2. order) :-0.2730262E-02  (-0.2728638E-02)
 number of electron      32.0000000 magnetization       0.4077101
 augmentation part       -1.8722452 magnetization       0.4146401

 Broyden mixing:
  rms(total) = 0.10813E+01    rms(broyden)= 0.10813E+01
  rms(prec ) = 0.14204E+01
  weight for this iteration     100.00

 Free energy of the ion-electron system (eV)
  ---------------------------------------------------
  alpha Z        PSCENC =        13.41208190
  Ewald energy   TEWEN  =      -913.24296298
  -Hartree energ DENC   =       -44.20443972
  -exchange      EXHF   =         0.00000000
  -V(xc)+E(xc)   XCENC  =       -69.56819799
  PAW double counting   =       699.59382407     -561.27664189
  entropy T*S    EENTRO =        -0.00000190
  eigenvalues    EBANDS =         8.57530466
  atomic energy  EATOM  =       820.60650216
  Solvation  Ediel_sol  =         0.00000000
  ---------------------------------------------------
  free energy    TOTEN  =       -46.10453168 eV

  energy without entropy =      -46.10452978  energy(sigma->0) =      -46.10453073


--------------------------------------------------------------------------------------------------------




--------------------------------------- Iteration      1(   6)  ---------------------------------------


    POTLOK:  cpu time    0.0186: real time    0.0186
    SETDIJ:  cpu time    0.1914: real time    0.1914
     EDDAV:  cpu time    2.6547: real time    2.6543
       DOS:  cpu time    0.0039: real time    0.0039
    CHARGE:  cpu time    0.0974: real time    0.0973
    MIXING:  cpu time    0.0006: real time    0.0008
    --------------------------------------------
      LOOP:  cpu time    2.9666: real time    2.9664

 eigenvalue-minimisations  : 14248
 total energy-change (2. order) :-0.1120339E+00  (-0.4354669E-01)
 number of electron      32.0000000 magnetization      -0.2724931
 augmentation part       -1.8508298 magnetization      -0.2635983

 Broyden mixing:
  rms(total) = 0.61003E+00    rms(broyden)= 0.61003E+00
  rms(prec ) = 0.81012E+00
  weight for this iteration     100.00

 eigenvalues of (default mixing * dielectric matrix)
  average eigenvalue GAMMA=   1.2112
  1.2112

 Free energy of the ion-electron system (eV)
  ---------------------------------------------------
  alpha Z        PSCENC =        13.41208190
  Ewald energy   TEWEN  =      -913.24296298
  -Hartree energ DENC   =       -49.93227858
  -exchange      EXHF   =         0.00000000
  -V(xc)+E(xc)   XCENC  =       -68.95257699
  PAW double counting   =      1532.01851058    -1394.11061207
  entropy T*S    EENTRO =        -0.00000000
  eigenvalues    EBANDS =        13.98477040
  atomic energy  EATOM  =       820.60650216
  Solvation  Ediel_sol  =         0.00000000
  ---------------------------------------------------
  free energy    TOTEN  =       -46.21656558 eV

  energy without entropy =      -46.21656558  energy(sigma->0) =      -46.21656558


--------------------------------------------------------------------------------------------------------




--------------------------------------- Iteration      1(   7)  ---------------------------------------


    POTLOK:  cpu time    0.0178: real time    0.0183
    SETDIJ:  cpu time    0.1926: real time    0.1925
     EDDAV:  cpu time    2.6236: real time    2.6232
       DOS:  cpu time    0.0040: real time    0.0040
    CHARGE:  cpu time    0.0974: real time    0.0974
    MIXING:  cpu time    0.0004: real time    0.0004
    --------------------------------------------
      LOOP:  cpu time    2.9358: real time    2.9357

 eigenvalue-minimisations  : 14000
 total energy-change (2. order) : 0.2560800E+00  (-0.5419121E-01)
 number of electron      32.0000000 magnetization      -0.1236985
 augmentation part       -1.8336200 magnetization      -0.1306176

 Broyden mixing:
  rms(total) = 0.23743E+00    rms(broyden)= 0.23743E+00
  rms(prec ) = 0.26839E+00
  weight for this iteration     100.00

 eigenvalues of (default mixing * dielectric matrix)
  average eigenvalue GAMMA=   1.2979
  0.7301  1.8657

 Free energy of the ion-electron system (eV)
  ---------------------------------------------------
  alpha Z        PSCENC =        13.41208190
  Ewald energy   TEWEN  =      -913.24296298
  -Hartree energ DENC   =       -56.60329027
  -exchange      EXHF   =         0.00000000
  -V(xc)+E(xc)   XCENC  =       -67.84055688
  PAW double counting   =      2931.34619317    -2793.82478284
  entropy T*S    EENTRO =        -0.00000000
  eigenvalues    EBANDS =        20.18633018
  atomic energy  EATOM  =       820.60650216
  Solvation  Ediel_sol  =         0.00000000
  ---------------------------------------------------
  free energy    TOTEN  =       -45.96048555 eV

  energy without entropy =      -45.96048555  energy(sigma->0) =      -45.96048555


--------------------------------------------------------------------------------------------------------




--------------------------------------- Iteration      1(   8)  ---------------------------------------


    POTLOK:  cpu time    0.0175: real time    0.0183
    SETDIJ:  cpu time    0.1915: real time    0.1915
     EDDAV:  cpu time    2.7271: real time    2.7267
       DOS:  cpu time    0.0041: real time    0.0041
    CHARGE:  cpu time    0.0975: real time    0.0975
    MIXING:  cpu time    0.0003: real time    0.0003
    --------------------------------------------
      LOOP:  cpu time    3.0381: real time    3.0384

 eigenvalue-minimisations  : 14720
 total energy-change (2. order) :-0.8403935E-02  (-0.6545575E-02)
 number of electron      32.0000000 magnetization      -0.0147417
 augmentation part       -1.8298671 magnetization      -0.0170085

 Broyden mixing:
  rms(total) = 0.76442E-01    rms(broyden)= 0.76442E-01
  rms(prec ) = 0.83258E-01
  weight for this iteration     100.00

 eigenvalues of (default mixing * dielectric matrix)
  average eigenvalue GAMMA=   1.3222
  2.3688  0.9722  0.6255

 Free energy of the ion-electron system (eV)
  ---------------------------------------------------
  alpha Z        PSCENC =        13.41208190
  Ewald energy   TEWEN  =      -913.24296298
  -Hartree energ DENC   =       -58.35891728
  -exchange      EXHF   =         0.00000000
  -V(xc)+E(xc)   XCENC  =       -67.53530853
  PAW double counting   =      3395.93810365    -3258.50984409
  entropy T*S    EENTRO =        -0.00000000
  eigenvalues    EBANDS =        21.72145567
  atomic energy  EATOM  =       820.60650216
  Solvation  Ediel_sol  =         0.00000000
  ---------------------------------------------------
  free energy    TOTEN  =       -45.96888949 eV

  energy without entropy =      -45.96888949  energy(sigma->0) =      -45.96888949


--------------------------------------------------------------------------------------------------------




--------------------------------------- Iteration      1(   9)  ---------------------------------------


    POTLOK:  cpu time    0.0178: real time    0.0183
    SETDIJ:  cpu time    0.1919: real time    0.1919
     EDDAV:  cpu time    2.7192: real time    2.7187
       DOS:  cpu time    0.0044: real time    0.0044
    CHARGE:  cpu time    0.1070: real time    0.1069
    MIXING:  cpu time    0.0005: real time    0.0005
    --------------------------------------------
      LOOP:  cpu time    3.0407: real time    3.0407

 eigenvalue-minimisations  : 14744
 total energy-change (2. order) :-0.3357019E-02  (-0.7351296E-03)
 number of electron      32.0000000 magnetization       0.0046500
 augmentation part       -1.8303391 magnetization       0.0045089

 Broyden mixing:
  rms(total) = 0.20368E-01    rms(broyden)= 0.20368E-01
  rms(prec ) = 0.28416E-01
  weight for this iteration     100.00

 eigenvalues of (default mixing * dielectric matrix)
  average eigenvalue GAMMA=   1.2312
  2.3659  1.0349  0.8982  0.6258

 Free energy of the ion-electron system (eV)
  ---------------------------------------------------
  alpha Z        PSCENC =        13.41208190
  Ewald energy   TEWEN  =      -913.24296298
  -Hartree energ DENC   =       -58.58782115
  -exchange      EXHF   =         0.00000000
  -V(xc)+E(xc)   XCENC  =       -67.47731360
  PAW double counting   =      3484.34433180    -3346.91476545
  entropy T*S    EENTRO =        -0.00000000
  eigenvalues    EBANDS =        21.88770081
  atomic energy  EATOM  =       820.60650216
  Solvation  Ediel_sol  =         0.00000000
  ---------------------------------------------------
  free energy    TOTEN  =       -45.97224651 eV

  energy without entropy =      -45.97224651  energy(sigma->0) =      -45.97224651


--------------------------------------------------------------------------------------------------------




--------------------------------------- Iteration      1(  10)  ---------------------------------------


    POTLOK:  cpu time    0.0196: real time    0.0201
    SETDIJ:  cpu time    0.1923: real time    0.1923
     EDDAV:  cpu time    2.7447: real time    2.7442
       DOS:  cpu time    0.0041: real time    0.0041
    CHARGE:  cpu time    0.0976: real time    0.0976
    MIXING:  cpu time    0.0004: real time    0.0004
    --------------------------------------------
      LOOP:  cpu time    3.0587: real time    3.0586

 eigenvalue-minimisations  : 14968
 total energy-change (2. order) :-0.4292839E-03  (-0.1250091E-03)
 number of electron      32.0000000 magnetization       0.0024094
 augmentation part       -1.8315469 magnetization       0.0023402

 Broyden mixing:
  rms(total) = 0.12793E-01    rms(broyden)= 0.12793E-01
  rms(prec ) = 0.16401E-01
  weight for this iteration     100.00

 eigenvalues of (default mixing * dielectric matrix)
  average eigenvalue GAMMA=   1.1966
  2.3194  1.3195  0.9972  0.7002  0.6469

 Free energy of the ion-electron system (eV)
  ---------------------------------------------------
  alpha Z        PSCENC =        13.41208190
  Ewald energy   TEWEN  =      -913.24296298
  -Hartree energ DENC   =       -58.51461211
  -exchange      EXHF   =         0.00000000
  -V(xc)+E(xc)   XCENC  =       -67.47274950
  PAW double counting   =      3476.69928337    -3339.25298316
  entropy T*S    EENTRO =        -0.00000000
  eigenvalues    EBANDS =        21.79276453
  atomic energy  EATOM  =       820.60650216
  Solvation  Ediel_sol  =         0.00000000
  ---------------------------------------------------
  free energy    TOTEN  =       -45.97267579 eV

  energy without entropy =      -45.97267579  energy(sigma->0) =      -45.97267579


--------------------------------------------------------------------------------------------------------




--------------------------------------- Iteration      1(  11)  ---------------------------------------


    POTLOK:  cpu time    0.0174: real time    0.0181
    SETDIJ:  cpu time    0.1920: real time    0.1920
     EDDAV:  cpu time    2.7322: real time    2.7317
       DOS:  cpu time    0.0040: real time    0.0040
    CHARGE:  cpu time    0.0979: real time    0.0979
    MIXING:  cpu time    0.0004: real time    0.0004
    --------------------------------------------
      LOOP:  cpu time    3.0440: real time    3.0441

 eigenvalue-minimisations  : 14872
 total energy-change (2. order) :-0.2197664E-03  (-0.2007832E-04)
 number of electron      32.0000000 magnetization      -0.0012771
 augmentation part       -1.8321400 magnetization      -0.0012181

 Broyden mixing:
  rms(total) = 0.69784E-02    rms(broyden)= 0.69784E-02
  rms(prec ) = 0.82980E-02
  weight for this iteration     100.00

 eigenvalues of (default mixing * dielectric matrix)
  average eigenvalue GAMMA=   1.3308
  2.3529  2.3529  1.0716  0.9585  0.6243  0.6243

 Free energy of the ion-electron system (eV)
  ---------------------------------------------------
  alpha Z        PSCENC =        13.41208190
  Ewald energy   TEWEN  =      -913.24296298
  -Hartree energ DENC   =       -58.50180904
  -exchange      EXHF   =         0.00000000
  -V(xc)+E(xc)   XCENC  =       -67.46455486
  PAW double counting   =      3466.85367759    -3329.39802771
  entropy T*S    EENTRO =        -0.00000000
  eigenvalues    EBANDS =        21.76219737
  atomic energy  EATOM  =       820.60650216
  Solvation  Ediel_sol  =         0.00000000
  ---------------------------------------------------
  free energy    TOTEN  =       -45.97289556 eV

  energy without entropy =      -45.97289556  energy(sigma->0) =      -45.97289556


--------------------------------------------------------------------------------------------------------




--------------------------------------- Iteration      1(  12)  ---------------------------------------


    POTLOK:  cpu time    0.0206: real time    0.0212
    SETDIJ:  cpu time    0.1918: real time    0.1918
     EDDAV:  cpu time    2.7612: real time    2.7607
       DOS:  cpu time    0.0040: real time    0.0040
    CHARGE:  cpu time    0.0975: real time    0.0975
    MIXING:  cpu time    0.0005: real time    0.0005
    --------------------------------------------
      LOOP:  cpu time    3.0756: real time    3.0756

 eigenvalue-minimisations  : 15064
 total energy-change (2. order) :-0.5525906E-04  (-0.4754486E-05)
 number of electron      32.0000000 magnetization      -0.0008707
 augmentation part       -1.8323248 magnetization      -0.0008303

 Broyden mixing:
  rms(total) = 0.27325E-02    rms(broyden)= 0.27325E-02
  rms(prec ) = 0.33144E-02
  weight for this iteration     100.00

 eigenvalues of (default mixing * dielectric matrix)
  average eigenvalue GAMMA=   1.3519
  2.5924  2.5924  1.2002  1.0019  0.8246  0.6257  0.6257

 Free energy of the ion-electron system (eV)
  ---------------------------------------------------
  alpha Z        PSCENC =        13.41208190
  Ewald energy   TEWEN  =      -913.24296298
  -Hartree energ DENC   =       -58.52605514
  -exchange      EXHF   =         0.00000000
  -V(xc)+E(xc)   XCENC  =       -67.45685094
  PAW double counting   =      3459.55124549    -3322.09304796
  entropy T*S    EENTRO =        -0.00000000
  eigenvalues    EBANDS =        21.77613666
  atomic energy  EATOM  =       820.60650216
  Solvation  Ediel_sol  =         0.00000000
  ---------------------------------------------------
  free energy    TOTEN  =       -45.97295082 eV

  energy without entropy =      -45.97295082  energy(sigma->0) =      -45.97295082


--------------------------------------------------------------------------------------------------------




--------------------------------------- Iteration      1(  13)  ---------------------------------------


    POTLOK:  cpu time    0.0176: real time    0.0180
    SETDIJ:  cpu time    0.1919: real time    0.1919
     EDDAV:  cpu time    2.7572: real time    2.7567
       DOS:  cpu time    0.0040: real time    0.0040
    CHARGE:  cpu time    0.0977: real time    0.0976
    MIXING:  cpu time    0.0004: real time    0.0004
    --------------------------------------------
      LOOP:  cpu time    3.0688: real time    3.0688

 eigenvalue-minimisations  : 14984
 total energy-change (2. order) :-0.8218970E-05  (-0.1408609E-05)
 number of electron      32.0000000 magnetization      -0.0000083
 augmentation part       -1.8322895 magnetization      -0.0000459

 Broyden mixing:
  rms(total) = 0.86703E-03    rms(broyden)= 0.86703E-03
  rms(prec ) = 0.10810E-02
  weight for this iteration     100.00

 eigenvalues of (default mixing * dielectric matrix)
  average eigenvalue GAMMA=   1.4084
  2.8023  2.4585  1.8821  1.0728  1.0266  0.7715  0.6267  0.6267

 Free energy of the ion-electron system (eV)
  ---------------------------------------------------
  alpha Z        PSCENC =        13.41208190
  Ewald energy   TEWEN  =      -913.24296298
  -Hartree energ DENC   =       -58.55212636
  -exchange      EXHF   =         0.00000000
  -V(xc)+E(xc)   XCENC  =       -67.45284899
  PAW double counting   =      3453.74035952    -3316.28277400
  entropy T*S    EENTRO =        -0.00000000
  eigenvalues    EBANDS =        21.79880971
  atomic energy  EATOM  =       820.60650216
  Solvation  Ediel_sol  =         0.00000000
  ---------------------------------------------------
  free energy    TOTEN  =       -45.97295904 eV

  energy without entropy =      -45.97295904  energy(sigma->0) =      -45.97295904


--------------------------------------------------------------------------------------------------------




--------------------------------------- Iteration      1(  14)  ---------------------------------------


    POTLOK:  cpu time    0.0175: real time    0.0183
    SETDIJ:  cpu time    0.1920: real time    0.1920
     EDDAV:  cpu time    2.7524: real time    2.7519
       DOS:  cpu time    0.0040: real time    0.0040
    CHARGE:  cpu time    0.0977: real time    0.0977
    MIXING:  cpu time    0.0004: real time    0.0004
    --------------------------------------------
      LOOP:  cpu time    3.0641: real time    3.0643

 eigenvalue-minimisations  : 15000
 total energy-change (2. order) :-0.1828454E-05  (-0.2672396E-06)
 number of electron      32.0000000 magnetization       0.0000168
 augmentation part       -1.8322465 magnetization       0.0000101

 Broyden mixing:
  rms(total) = 0.16454E-03    rms(broyden)= 0.16454E-03
  rms(prec ) = 0.20257E-03
  weight for this iteration     100.00

 eigenvalues of (default mixing * dielectric matrix)
  average eigenvalue GAMMA=   1.3455
  2.8276  2.3923  2.0461  1.0957  1.0195  0.8096  0.6701  0.6242  0.6242

 Free energy of the ion-electron system (eV)
  ---------------------------------------------------
  alpha Z        PSCENC =        13.41208190
  Ewald energy   TEWEN  =      -913.24296298
  -Hartree energ DENC   =       -58.56456757
  -exchange      EXHF   =         0.00000000
  -V(xc)+E(xc)   XCENC  =       -67.45146185
  PAW double counting   =      3451.00147158    -3313.54442287
  entropy T*S    EENTRO =        -0.00000000
  eigenvalues    EBANDS =        21.81039877
  atomic energy  EATOM  =       820.60650216
  Solvation  Ediel_sol  =         0.00000000
  ---------------------------------------------------
  free energy    TOTEN  =       -45.97296086 eV

  energy without entropy =      -45.97296086  energy(sigma->0) =      -45.97296086


--------------------------------------------------------------------------------------------------------




--------------------------------------- Iteration      1(  15)  ---------------------------------------


[...]
      4      -3.6337      1.00000
      5      -1.1010      1.00000
      6      -1.0886      1.00000
      7      -0.5561      1.00000
      8      -0.1359      1.00000
      9       3.1146      1.00000
     10       3.1177      1.00000
     11       3.7828      1.00000
     12       4.0881      1.00000
     13       4.0963      1.00000
     14       4.2149      1.00000
     15       4.4820      1.00000
     16       4.5004      1.00000
     17       7.6361      0.00000
     18       7.8859      0.00000
     19       8.0930      0.00000
     20       8.0992      0.00000
     21       8.9832      0.00000
     22       9.0225      0.00000
     23       9.0339      0.00000
     24       9.0910      0.00000

 k-point   118 :      -0.4444   -0.3333    0.3333
  band No.  band energies     occupation 
      1      -4.5129      1.00000
      2      -4.1292      1.00000
      3      -3.6407      1.00000
      4      -3.6276      1.00000
      5      -1.1049      1.00000
      6      -1.0971      1.00000
      7      -0.5572      1.00000
      8      -0.1270      1.00000
      9       3.1165      1.00000
     10       3.1317      1.00000
     11       3.7915      1.00000
     12       4.0863      1.00000
     13       4.0879      1.00000
     14       4.2068      1.00000
     15       4.4781      1.00000
     16       4.4983      1.00000
     17       7.6329      0.00000
     18       7.8833      0.00000
     19       8.0919      0.00000
     20       8.0982      0.00000
     21       8.9757      0.00000
     22       9.0239      0.00000
     23       9.0325      0.00000
     24       9.0858      0.00000

 k-point   119 :      -0.3333   -0.4444    0.3333
  band No.  band energies     occupation 
      1      -4.5130      1.00000
      2      -4.1262      1.00000
      3      -3.6397      1.00000
      4      -3.6336      1.00000
      5      -1.1014      1.00000
      6      -1.0890      1.00000
      7      -0.5667      1.00000
      8      -0.1264      1.00000
      9       3.1176      1.00000
     10       3.1206      1.00000
     11       3.7921      1.00000
     12       4.0851      1.00000
     13       4.0939      1.00000
     14       4.2127      1.00000
     15       4.4825      1.00000
     16       4.4929      1.00000
     17       7.6323      0.00000
     18       7.8878      0.00000
     19       8.0874      0.00000
     20       8.0936      0.00000
     21       8.9864      0.00000
     22       9.0278      0.00000
     23       9.0386      0.00000
     24       9.0908      0.00000

 k-point   120 :       0.4444    0.4444    0.3333
  band No.  band energies     occupation 
      1      -4.2338      1.00000
      2      -3.9298      1.00000
      3      -3.9225      1.00000
      4      -3.7471      1.00000
      5      -1.1329      1.00000
      6      -0.9503      1.00000
      7      -0.9376      1.00000
      8      -0.6123      1.00000
      9       3.5222      1.00000
     10       3.7704      1.00000
     11       3.7804      1.00000
     12       4.2186      1.00000
     13       4.3573      1.00000
     14       4.3929      1.00000
     15       4.3982      1.00000
     16       4.6521      1.00000
     17       7.5661      0.00000
     18       7.8940      0.00000
     19       7.8962      0.00000
     20       7.9028      0.00000
     21       8.9003      0.00000
     22       8.9075      0.00000
     23       9.1033      0.00000
     24       9.1487      0.00000

 k-point   121 :       0.3333    0.4444    0.4444
  band No.  band energies     occupation 
      1      -4.2334      1.00000
      2      -3.9347      1.00000
      3      -3.9225      1.00000
      4      -3.7417      1.00000
      5      -1.1449      1.00000
      6      -0.9420      1.00000
      7      -0.9346      1.00000
      8      -0.6128      1.00000
      9       3.5234      1.00000
     10       3.7801      1.00000
     11       3.7812      1.00000
     12       4.2110      1.00000
     13       4.3626      1.00000
     14       4.3775      1.00000
     15       4.3942      1.00000
     16       4.6617      1.00000
     17       7.5659      0.00000
     18       7.8964      0.00000
     19       7.8988      0.00000
     20       7.9016      0.00000
     21       8.8919      0.00000
     22       8.8966      0.00000
     23       9.1083      0.00000
     24       9.1356      0.00000

 k-point   122 :      -0.4444   -0.4444    0.3333
  band No.  band energies     occupation 
      1      -4.2371      1.00000
      2      -3.9295      1.00000
      3      -3.9228      1.00000
      4      -3.7418      1.00000
      5      -1.1447      1.00000
      6      -0.9504      1.00000
      7      -0.9381      1.00000
      8      -0.6027      1.00000
      9       3.5303      1.00000
     10       3.7768      1.00000
     11       3.7872      1.00000
     12       4.2103      1.00000
     13       4.3548      1.00000
     14       4.3859      1.00000
     15       4.3909      1.00000
     16       4.6553      1.00000
     17       7.5628      0.00000
     18       7.8946      0.00000
     19       7.8993      0.00000
     20       7.9040      0.00000
     21       8.8889      0.00000
     22       8.8963      0.00000
     23       9.1033      0.00000
     24       9.1322      0.00000

 k-point   123 :      -0.3333   -0.4444    0.4444
  band No.  band energies     occupation 
      1      -4.2372      1.00000
      2      -3.9297      1.00000
      3      -3.9176      1.00000
      4      -3.7476      1.00000
      5      -1.1325      1.00000
      6      -0.9537      1.00000
      7      -0.9463      1.00000
      8      -0.6023      1.00000
      9       3.5298      1.00000
     10       3.7761      1.00000
     11       3.7772      1.00000
     12       4.2186      1.00000
     13       4.3486      1.00000
     14       4.3893      1.00000
     15       4.4063      1.00000
     16       4.6459      1.00000
     17       7.5631      0.00000
     18       7.8931      0.00000
     19       7.8996      0.00000
     20       7.9014      0.00000
     21       8.9002      0.00000
     22       8.9046      0.00000
     23       9.0977      0.00000
     24       9.1358      0.00000

 k-point   124 :       0.4444    0.4444    0.4444
  band No.  band energies     occupation 
      1      -4.0308      1.00000
      2      -3.8611      1.00000
      3      -3.8484      1.00000
      4      -3.8477      1.00000
      5      -1.1994      1.00000
      6      -1.1917      1.00000
      7      -1.1828      1.00000
      8      -1.0048      1.00000
      9       4.2476      1.00000
     10       4.2593      1.00000
     11       4.2635      1.00000
     12       4.4757      1.00000
     13       4.4762      1.00000
     14       4.4844      1.00000
     15       4.5764      1.00000
     16       4.5901      1.00000
     17       7.2426      0.00000
     18       7.4985      0.00000
     19       7.4985      0.00000
     20       7.5033      0.00000
     21       8.9663      0.00000
     22       8.9673      0.00000
     23       8.9784      0.00000
     24       9.0594      0.00000

 k-point   125 :      -0.4444   -0.4444    0.4444
  band No.  band energies     occupation 
      1      -4.0354      1.00000
      2      -3.8554      1.00000
      3      -3.8543      1.00000
      4      -3.8420      1.00000
      5      -1.2037      1.00000
      6      -1.1949      1.00000
      7      -1.1873      1.00000
      8      -0.9939      1.00000
      9       4.2591      1.00000
     10       4.2633      1.00000
     11       4.2742      1.00000
     12       4.4644      1.00000
     13       4.4746      1.00000
     14       4.4761      1.00000
     15       4.5745      1.00000
     16       4.5863      1.00000
     17       7.2394      0.00000
     18       7.4982      0.00000
     19       7.5031      0.00000
     20       7.5031      0.00000
     21       8.9554      0.00000
     22       8.9656      0.00000
     23       8.9680      0.00000
     24       9.0535      0.00000


--------------------------------------------------------------------------------------------------------


 soft charge-density along one line, spin component           1
         0         1         2         3         4         5         6         7         8         9
 total charge-density along one line
 
 soft charge-density along one line, spin component           2
         0         1         2         3         4         5         6         7         8         9
 total charge-density along one line
 
 pseudopotential strength for first ion, spin component:           1
 18.405  25.677  -0.000  -0.000   0.000  -0.000  -0.000   0.000
 25.677  35.827  -0.000  -0.000   0.000  -0.000  -0.000   0.000
 -0.000  -0.000   4.177   0.000   0.000   7.782   0.000   0.000
 -0.000  -0.000   0.000   4.177  -0.000   0.000   7.782  -0.000
  0.000   0.000   0.000  -0.000   4.177   0.000  -0.000   7.782
 -0.000  -0.000   7.782   0.000   0.000  14.509   0.000   0.000
 -0.000  -0.000   0.000   7.782  -0.000   0.000  14.509  -0.000
  0.000   0.000   0.000  -0.000   7.782   0.000  -0.000  14.509
 pseudopotential strength for first ion, spin component:           2
 18.405  25.677  -0.000  -0.000   0.000  -0.000  -0.000   0.000
 25.677  35.827  -0.000  -0.000   0.000  -0.000  -0.000   0.000
 -0.000  -0.000   4.177   0.000   0.000   7.782   0.000   0.000
 -0.000  -0.000   0.000   4.177  -0.000   0.000   7.782  -0.000
  0.000   0.000   0.000  -0.000   4.177   0.000  -0.000   7.782
 -0.000  -0.000   7.782   0.000   0.000  14.509   0.000   0.000
 -0.000  -0.000   0.000   7.782  -0.000   0.000  14.509  -0.000
  0.000   0.000   0.000  -0.000   7.782   0.000  -0.000  14.509
 total augmentation occupancy for first ion, spin component:           1
  5.892  -2.260  -0.000  -0.000   0.019   0.000   0.000  -0.006
 -2.260   0.978   0.000   0.000  -0.009   0.000  -0.000   0.003
 -0.000   0.000   2.925   0.022  -0.000  -0.653  -0.006   0.000
 -0.000   0.000   0.022   2.925   0.000  -0.006  -0.653   0.000
  0.019  -0.009  -0.000   0.000   2.925   0.000   0.000  -0.653
  0.000   0.000  -0.653  -0.006   0.000   0.155   0.002  -0.000
  0.000   0.000  -0.006  -0.653   0.000   0.002   0.155  -0.000
 -0.006   0.003   0.000   0.000  -0.653  -0.000  -0.000   0.155
 total augmentation occupancy for first ion, spin component:           2
 -0.000   0.000   0.000   0.000  -0.000  -0.000  -0.000   0.000
  0.000  -0.000   0.000   0.000   0.000   0.000   0.000  -0.000
  0.000   0.000  -0.000  -0.000   0.000   0.000   0.000  -0.000
  0.000   0.000  -0.000  -0.000   0.000   0.000   0.000  -0.000
 -0.000   0.000   0.000   0.000  -0.000  -0.000  -0.000   0.000
 -0.000   0.000   0.000   0.000  -0.000  -0.000  -0.000   0.000
 -0.000   0.000   0.000   0.000  -0.000  -0.000  -0.000   0.000
  0.000  -0.000  -0.000  -0.000   0.000   0.000   0.000  -0.000


------------------------ aborting loop because EDIFF is reached ----------------------------------------


 


 total charge     
 
# of ion       s       p       d       tot
------------------------------------------
    1        0.752   0.936   0.000   1.689
    2        0.752   0.936   0.000   1.689
    3        0.752   0.936   0.000   1.689
    4        0.752   0.936   0.000   1.689
    5        0.752   0.937   0.000   1.690
    6        0.752   0.937   0.000   1.690
    7        0.752   0.935   0.000   1.688
    8        0.752   0.935   0.000   1.688
--------------------------------------------------
tot          6.019   7.491   0.000  13.510
 


 magnetization (x)
 
# of ion       s       p       d       tot
------------------------------------------
    1       -0.000  -0.000   0.000  -0.000
    2       -0.000  -0.000   0.000  -0.000
    3       -0.000  -0.000   0.000  -0.000
    4       -0.000  -0.000   0.000  -0.000
    5       -0.000  -0.000   0.000  -0.000
    6       -0.000  -0.000   0.000  -0.000
    7       -0.000  -0.000   0.000  -0.000
    8       -0.000  -0.000   0.000  -0.000
--------------------------------------------------
tot         -0.000  -0.000   0.000  -0.000
 
    CHARGE:  cpu time    0.0983: real time    0.0983
    FORLOC:  cpu time    0.0006: real time    0.0006
    FORNL :  cpu time    0.1629: real time    0.1630
    STRESS:  cpu time    0.3117: real time    0.3122
    FORCOR:  cpu time    0.0159: real time    0.0161
    FORHAR:  cpu time    0.0022: real time    0.0025
    MIXING:  cpu time    0.0006: real time    0.0006
    OFIELD:  cpu time    0.0001: real time    0.0002

  FORCE on cell =-STRESS in cart. coord.  units (eV):
  Direction    XX          YY          ZZ          XY          YZ          ZX
  --------------------------------------------------------------------------------------
  Alpha Z    13.41208    13.41208    13.41208
  Ewald    -304.42170  -304.41141  -304.41141    -0.00000     0.78417    -0.00000
  Hartree    19.52073    19.52283    19.52283     0.00000     0.08706    -0.00000
  E(xc)    -102.13086  -102.13099  -102.13099    -0.00000    -0.01025     0.00000
  Local    -116.26486  -116.27688  -116.27688    -0.00000    -0.81908    -0.00000
  n-local   310.25948   310.92897   309.59420    -2.40780     0.16311    -0.18429
  augment   -46.06998   -46.07010   -46.07010    -0.00000    -0.00723     0.00000
  Kinetic   225.68694   224.40140   226.97189    -3.56685    -0.09934    -0.20844
  Fock        0.00000     0.00000     0.00000     0.00000     0.00000     0.00000
  -------------------------------------------------------------------------------------
  Total      -0.00816    -0.00624    -0.00624    -0.00000     0.09844     0.00000
  in kB      -0.08140    -0.06228    -0.06228    -0.00000     0.98187     0.00000
  external pressure =       -0.07 kB  Pullay stress =        0.00 kB


 VOLUME and BASIS-vectors are now :
 -----------------------------------------------------------------------------
  energy-cutoff  :      700.00
  volume of cell :      160.63
      direct lattice vectors                 reciprocal lattice vectors
     5.435999740 -0.000000000 -0.000000000     0.183958802  0.000000000 -0.000000000
    -0.000000000  5.435999740  0.000000000     0.000000000  0.183958802 -0.000000000
     0.000000000  0.000000000  5.435999740     0.000000000 -0.000000000  0.183958802

  length of vectors
     5.435999740  5.435999740  5.435999740     0.183958802  0.183958802  0.183958802


 FORCES acting on ions
    electron-ion (+dipol)            ewald-force                    non-local-force                 convergence-correction
 -----------------------------------------------------------------------------------------------
   0.459E+00 -.174E-11 -.942E-08   -.421E+00 0.000E+00 0.000E+00   -.173E+00 -.191E-16 -.270E-16   0.454E-04 0.220E-14 -.517E-14
   0.253E-01 -.133E-13 -.142E-13   -.642E-01 0.000E+00 -.355E-14   0.220E-01 -.290E-16 -.197E-16   -.317E-04 0.956E-15 0.480E-14
   -.122E+00 0.119E-14 -.212E-12   0.122E+00 -.355E-14 -.355E-14   0.858E-02 -.936E-18 -.257E-16   -.484E-05 0.233E-14 0.599E-14
   -.122E+00 -.104E-12 -.159E-12   0.122E+00 0.000E+00 -.355E-14   0.858E-02 -.165E-16 0.254E-17   -.484E-05 0.989E-15 -.489E-14
   -.589E-01 -.179E+00 -.179E+00   0.590E-01 0.153E+00 0.153E+00   0.334E-01 0.508E-01 0.508E-01   -.113E-05 -.189E-04 -.189E-04
   -.589E-01 0.179E+00 0.179E+00   0.590E-01 -.153E+00 -.153E+00   0.334E-01 -.508E-01 -.508E-01   -.113E-05 0.189E-04 0.189E-04
   -.614E-01 0.178E+00 -.178E+00   0.611E-01 -.152E+00 0.152E+00   0.335E-01 -.501E-01 0.501E-01   -.793E-06 0.196E-04 -.196E-04
   -.614E-01 -.178E+00 0.178E+00   0.611E-01 0.152E+00 -.152E+00   0.335E-01 0.501E-01 -.501E-01   -.793E-06 -.196E-04 0.196E-04
 -----------------------------------------------------------------------------------------------
   0.158E-05 -.193E-11 -.942E-08   -.368E-14 -.344E-14 0.222E-15   -.639E-05 -.104E-15 0.139E-16   0.110E-06 0.936E-14 -.602E-14
 
 
 POSITION                                       TOTAL-FORCE (eV/Angst)
 -----------------------------------------------------------------------------------
      0.01000     -0.00000     -0.00000        -0.134119      0.000000      0.000000
      0.00000      2.71800      2.71800        -0.017006      0.000000      0.000000
      2.71800      0.00000      2.71800         0.008890     -0.000000     -0.000000
      2.71800      2.71800      0.00000         0.008890     -0.000000     -0.000000
      1.35900      1.35900      1.35900         0.033486      0.024866      0.024866
      1.35900      4.07700      4.07700         0.033486     -0.024866     -0.024866
      4.07700      1.35900      4.07700         0.033186     -0.024270      0.024270
      4.07700      4.07700      1.35900         0.033186      0.024270     -0.024270
 -----------------------------------------------------------------------------------
    total drift:                               -0.000005     -0.000000     -0.000000


--------------------------------------------------------------------------------------------------------



  FREE ENERGIE OF THE ION-ELECTRON SYSTEM (eV)
  ---------------------------------------------------
  free  energy   TOTEN  =       -45.97296096 eV

  energy  without entropy=      -45.97296096  energy(sigma->0) =      -45.97296096
 


--------------------------------------------------------------------------------------------------------


    POTLOK:  cpu time    0.2069: real time    0.2069


--------------------------------------------------------------------------------------------------------


 stress matrix after NEB project (eV)
     -0.00816     -0.00000      0.00000
     -0.00000     -0.00624      0.09844
      0.00000      0.09844     -0.00624
  FORCES: max atom, RMS     0.134119    0.058853
  FORCE total and by dimension    0.166463    0.134119
  Stress total and by dimension    0.139737    0.098443
     LOOP+:  cpu time   45.0958: real time   45.1053
    4ORBIT:  cpu time    0.0000: real time    0.0000
 


 total charge     
 
# of ion       s       p       d       tot
------------------------------------------
    1        0.752   0.936   0.000   1.689
    2        0.752   0.936   0.000   1.689
    3        0.752   0.936   0.000   1.689
    4        0.752   0.936   0.000   1.689
    5        0.752   0.937   0.000   1.690
    6        0.752   0.937   0.000   1.690
    7        0.752   0.935   0.000   1.688
    8        0.752   0.935   0.000   1.688
--------------------------------------------------
tot          6.019   7.491   0.000  13.510
 


 magnetization (x)
 
# of ion       s       p       d       tot
------------------------------------------
    1       -0.000  -0.000   0.000  -0.000
    2       -0.000  -0.000   0.000  -0.000
    3       -0.000  -0.000   0.000  -0.000
    4       -0.000  -0.000   0.000  -0.000
    5       -0.000  -0.000   0.000  -0.000
    6       -0.000  -0.000   0.000  -0.000
    7       -0.000  -0.000   0.000  -0.000
    8       -0.000  -0.000   0.000  -0.000
--------------------------------------------------
tot         -0.000  -0.000   0.000  -0.000
 

 total amount of memory used by VASP MPI-rank0    38013. kBytes
=======================================================================

   base      :      30000. kBytes
   nonl-proj :       1593. kBytes
   fftplans  :        472. kBytes
   grid      :       1046. kBytes
   one-center:          6. kBytes
   wavefun   :       4896. kBytes
 
  
  
 General timing and accounting informations for this job:
 ========================================================
  
                  Total CPU time used (sec):       51.193
                            User time (sec):       50.721
                          System time (sec):        0.472
                         Elapsed time (sec):       51.694
  
                   Maximum memory used (kb):      234600.
                   Average memory used (kb):           0.
  
                          Minor page faults:        22687
                          Major page faults:            0
                 Voluntary context switches:         3011
