 vasp.6.3.0 20Jan22 (build Feb 02 2022 18:12:33) complex                        
  
 executed on             LinuxIFC date 2022.04.15  08:46:54
 running on  144 total cores
 distrk:  each k-point on  144 cores,    1 groups
 distr:  one band on NCORE=   1 cores,  144 groups


--------------------------------------------------------------------------------------------------------


 INCAR:
   ALGO = Fast
   EDIFF = 1e-05
   ENAUG = 1360.0
   ENCUT = 500
   GGA = Ps
   ISMEAR = 0
   ISPIN = 2
   LAECHG = False
   LASPH = True
   LCHARG = True
   LELF = False
   LMIXTAU = True
   LORBIT = 11
   LREAL = False
   LVTOT = True
   LWAVE = True
   MAGMOM = 7*0.0
   NELECT = 27.0
   NELM = 200
   NELMIN = 6
   NSW = 0
   PREC = Accurate
   SIGMA = 0.05

 POTCAR:    PAW_PBE Si 05Jan2001                  
 WARNING: For LVTOT=.TRUE., VASP.5.x writes the TOTAL local potential to the
     file LOCPOT. If you want only the Hartree contributions, use LVHAR=.TRUE.
     instead. 

 -----------------------------------------------------------------------------
|                                                                             |
|           W    W    AA    RRRRR   N    N  II  N    N   GGGG   !!!           |
|           W    W   A  A   R    R  NN   N  II  NN   N  G    G  !!!           |
|           W    W  A    A  R    R  N N  N  II  N N  N  G       !!!           |
|           W WW W  AAAAAA  RRRRR   N  N N  II  N  N N  G  GGG   !            |
|           WW  WW  A    A  R   R   N   NN  II  N   NN  G    G                |
|           W    W  A    A  R    R  N    N  II  N    N   GGGG   !!!           |
|                                                                             |
|     For optimal performance we recommend to set                             |
|       NCORE = 2 up to number-of-cores-per-socket                            |
|     NCORE specifies how many cores store one orbital (NPAR=cpu/NCORE).      |
|     This setting can greatly improve the performance of VASP for DFT.       |
|     The default, NCORE=1 might be grossly inefficient on modern             |
|     multi-core architectures or massively parallel machines. Do your        |
|     own testing! More info at https://www.vasp.at/wiki/index.php/NCORE      |
|     Unfortunately you need to use the default for GW and RPA                |
|     calculations (for HF NCORE is supported but not extensively tested      |
|     yet).                                                                   |
|                                                                             |
 -----------------------------------------------------------------------------

 POTCAR:    PAW_PBE Si 05Jan2001                  
   VRHFIN =Si: s2p2                                                                                 
   LEXCH  = PE                                                                                      
   EATOM  =   103.0669 eV,    7.5752 Ry                                                             
                                                                                                    
   TITEL  = PAW_PBE Si 05Jan2001                                                                    
   LULTRA =        F    use ultrasoft PP ?                                                          
   IUNSCR =        1    unscreen: 0-lin 1-nonlin 2-no                                               
   RPACOR =    1.500    partial core radius                                                         
   POMASS =   28.085; ZVAL   =    4.000    mass and valenz                                          
   RCORE  =    1.900    outmost cutoff radius                                                       
   RWIGS  =    2.480; RWIGS  =    1.312    wigner-seitz radius (au A)                               
   ENMAX  =  245.345; ENMIN  =  184.009 eV                                                          
   ICORE  =        2    local potential                                                             
   LCOR   =        T    correct aug charges                                                         
   LPAW   =        T    paw PP                                                                      
   EAUG   =  322.069                                                                                
   DEXC   =    0.000                                                                                
   RMAX   =    1.950    core radius for proj-oper                                                   
   RAUG   =    1.300    factor for augmentation sphere                                              
   RDEP   =    1.993    radius for radial grids                                                     
   RDEPT  =    1.837    core radius for aug-charge                                                  
                                                                                                    
   Atomic configuration                                                                             
    6 entries                                                                                       
     n  l   j            E        occ.                                                              
     1  0  0.50     -1785.8828   2.0000                                                             
     2  0  0.50      -139.4969   2.0000                                                             
     2  1  1.50       -95.5546   6.0000                                                             
     3  0  0.50       -10.8127   2.0000                                                             
     3  1  0.50        -4.0811   2.0000                                                             
     3  2  1.50        -4.0817   0.0000                                                             
   Description                                                                                      
     l       E           TYP  RCUT    TYP  RCUT                                                     
     0    -10.8127223     23  1.900                                                                 
     0     -7.6451159     23  1.900                                                                 
     1     -4.0811372     23  1.900                                                                 
     1      2.4879257     23  1.900                                                                 
     2     -4.0817478      7  1.900                                                                 
  local pseudopotential read in
  partial core-charges read in
  partial kinetic energy density read in
  atomic valenz-charges read in
  non local Contribution for L=           0  read in
    real space projection operators read in
  non local Contribution for L=           0  read in
    real space projection operators read in
  non local Contribution for L=           1  read in
    real space projection operators read in
  non local Contribution for L=           1  read in
    real space projection operators read in
    PAW grid and wavefunctions read in
 
   number of l-projection  operators is LMAX  =           4
   number of lm-projection operators is LMMAX =           8
 
 -----------------------------------------------------------------------------
|                                                                             |
|               ----> ADVICE to this user running VASP <----                  |
|                                                                             |
|     You enforced a specific xc type in the INCAR file but a different       |
|     type was found in the POTCAR file.                                      |
|     I HOPE YOU KNOW WHAT YOU ARE DOING!                                     |
|                                                                             |
 -----------------------------------------------------------------------------

  PAW_PBE Si 05Jan2001                  :
 energy of atom  1       EATOM= -103.0669
 kinetic energy error for atom=    0.0006 (will be added to EATOM!!)
 
 
 POSCAR: Si7
  positions in direct lattice
  No initial velocities read in
 exchange correlation table for  LEXCH =       14
   RHO(1)=    0.500       N(1)  =     2000
   RHO(2)= 2000.500       N(2)  =     4000
 


--------------------------------------------------------------------------------------------------------


 ion  position               nearest neighbor table
   1  0.242  0.758  0.242-   2 2.33   4 2.33   6 2.33
   2  0.000  0.000  0.500-   1 2.33   3 2.33   5 2.33   7 2.33
   3  0.242  0.242  0.758-   2 2.33   4 2.33   6 2.33
   4  0.000  0.500  0.000-   1 2.33   3 2.33   5 2.33   7 2.33
   5  0.758  0.758  0.758-   2 2.33   4 2.33   6 2.33
   6  0.500  0.000  0.000-   1 2.33   3 2.33   5 2.33   7 2.33
   7  0.758  0.242  0.242-   2 2.33   4 2.33   6 2.33
 
  LATTYP: Found a simple cubic cell.
 ALAT       =     5.4378483500
  
  Lattice vectors:
  
 A1 = (   5.4378483500,   0.0000000000,   0.0000000000)
 A2 = (   0.0000000000,   5.4378483500,   0.0000000000)
 A3 = (   0.0000000000,   0.0000000000,   5.4378483500)


Analysis of symmetry for initial positions (statically):
=====================================================================
 Subroutine PRICEL returns:
 Original cell was already a primitive cell.
 

 Routine SETGRP: Setting up the symmetry group for a 
 simple cubic supercell.


 Subroutine GETGRP returns: Found 24 space group operations
 (whereof 24 operations were pure point group operations)
 out of a pool of 48 trial point group operations.


The static configuration has the point symmetry T_d .


Analysis of symmetry for dynamics (positions and initial velocities):
=====================================================================
 Subroutine PRICEL returns:
 Original cell was already a primitive cell.
 

 Routine SETGRP: Setting up the symmetry group for a 
 simple cubic supercell.


 Subroutine GETGRP returns: Found 24 space group operations
 (whereof 24 operations were pure point group operations)
 out of a pool of 48 trial point group operations.


The dynamic configuration has the point symmetry T_d .


Analysis of structural, dynamic, and magnetic symmetry:
=====================================================================
 Subroutine PRICEL returns:
 Original cell was already a primitive cell.
 

 Routine SETGRP: Setting up the symmetry group for a 
 simple cubic supercell.


 Subroutine GETGRP returns: Found 24 space group operations
 (whereof 24 operations were pure point group operations)
 out of a pool of 48 trial point group operations.


The overall configuration has the point symmetry T_d .


 Subroutine INISYM returns: Found 24 space group operations
 (whereof 24 operations are pure point group operations),
 and found     1 'primitive' translations


----------------------------------------------------------------------------------------

                                     Primitive cell                                     

  volume of cell :     160.7982

  direct lattice vectors                    reciprocal lattice vectors
     5.437848350  0.000000000  0.000000000     0.183896265  0.000000000  0.000000000
     0.000000000  5.437848350  0.000000000     0.000000000  0.183896265  0.000000000
     0.000000000  0.000000000  5.437848350     0.000000000  0.000000000  0.183896265

  length of vectors
     5.437848350  5.437848350  5.437848350     0.183896265  0.183896265  0.183896265

  position of ions in fractional coordinates (direct lattice)
     0.241947218  0.758052782  0.241947218
     0.000000000  0.000000000  0.500000000
     0.241947218  0.241947218  0.758052782
     0.000000000  0.500000000  0.000000000
     0.758052782  0.758052782  0.758052782
     0.500000000  0.000000000  0.000000000
     0.758052782  0.241947218  0.241947218

  ion indices of the primitive-cell ions
   primitive index   ion index
                 1           1
                 2           2
                 3           3
                 4           4
                 5           5
                 6           6
                 7           7

----------------------------------------------------------------------------------------

 
 
 KPOINTS: pymatgen with grid density = 691 / numbe

Automatic generation of k-mesh.
 Grid dimensions read from file:
 generate k-points for:    4    4    4

 Generating k-lattice:

  Cartesian coordinates                     Fractional coordinates (reciprocal lattice)
     0.045974066  0.000000000  0.000000000     0.250000000  0.000000000  0.000000000
     0.000000000  0.045974066  0.000000000     0.000000000  0.250000000  0.000000000
     0.000000000  0.000000000  0.045974066     0.000000000  0.000000000  0.250000000

  Length of vectors
     0.045974066  0.045974066  0.045974066

  Shift w.r.t. Gamma in fractional coordinates (k-lattice)
     0.000000000  0.000000000  0.000000000

 
 Subroutine IBZKPT returns following result:
 ===========================================
 
 Found     10 irreducible k-points:
 
 Following reciprocal coordinates:
            Coordinates               Weight
  0.000000  0.000000  0.000000      1.000000
  0.250000  0.000000  0.000000      6.000000
  0.500000  0.000000  0.000000      3.000000
  0.250000  0.250000  0.000000     12.000000
  0.500000  0.250000  0.000000     12.000000
  0.500000  0.500000  0.000000      3.000000
  0.250000  0.250000  0.250000      8.000000
  0.500000  0.250000  0.250000     12.000000
  0.500000  0.500000  0.250000      6.000000
  0.500000  0.500000  0.500000      1.000000
 
 Following cartesian coordinates:
            Coordinates               Weight
  0.000000  0.000000  0.000000      1.000000
  0.045974  0.000000  0.000000      6.000000
  0.091948  0.000000  0.000000      3.000000
  0.045974  0.045974  0.000000     12.000000
  0.091948  0.045974  0.000000     12.000000
  0.091948  0.091948  0.000000      3.000000
  0.045974  0.045974  0.045974      8.000000
  0.091948  0.045974  0.045974     12.000000
  0.091948  0.091948  0.045974      6.000000
  0.091948  0.091948  0.091948      1.000000
 


--------------------------------------------------------------------------------------------------------




 Dimension of arrays:
   k-points           NKPTS =     10   k-points in BZ     NKDIM =     10   number of bands    NBANDS=    144
   number of dos      NEDOS =    301   number of ions     NIONS =      7
   non local maximal  LDIM  =      4   non local SUM 2l+1 LMDIM =      8
   total plane-waves  NPLWV =  64000
   max r-space proj   IRMAX =      1   max aug-charges    IRDMAX=  13506
   dimension x,y,z NGX =    40 NGY =   40 NGZ =   40
   dimension x,y,z NGXF=    80 NGYF=   80 NGZF=   80
   support grid    NGXF=    80 NGYF=   80 NGZF=   80
   ions per type =               7
   NGX,Y,Z   is equivalent  to a cutoff of  12.23, 12.23, 12.23 a.u.
   NGXF,Y,Z  is equivalent  to a cutoff of  24.46, 24.46, 24.46 a.u.

 SYSTEM =  unknown system                          
 POSCAR =  Si7                                     

 Startparameter for this run:
   NWRITE =      2    write-flag & timer
   PREC   = accura    normal or accurate (medium, high low for compatibility)
   ISTART =      0    job   : 0-new  1-cont  2-samecut
   ICHARG =      2    charge: 1-file 2-atom 10-const
   ISPIN  =      2    spin polarized calculation?
   LNONCOLLINEAR =      F non collinear calculations
   LSORBIT =      F    spin-orbit coupling
   INIWAV =      1    electr: 0-lowe 1-rand  2-diag
   LASPH  =      T    aspherical Exc in radial PAW
 Electronic Relaxation 1
   ENCUT  =  500.0 eV  36.75 Ry    6.06 a.u.   9.91  9.91  9.91*2*pi/ulx,y,z
   ENINI  =  500.0     initial cutoff
   ENAUG  = 1360.0 eV  augmentation charge cutoff
   NELM   =    200;   NELMIN=  6; NELMDL= -5     # of ELM steps 
   EDIFF  = 0.1E-04   stopping-criterion for ELM
   LREAL  =      F    real-space projection
   NLSPLINE    = F    spline interpolate recip. space projectors
   LCOMPAT=      F    compatible to vasp.4.4
   GGA_COMPAT  = T    GGA compatible to vasp.4.4-vasp.4.6
   LMAXPAW     = -100 max onsite density
   LMAXMIX     =    2 max onsite mixed and CHGCAR
   VOSKOWN=      0    Vosko Wilk Nusair interpolation
   ROPT   =    0.00000
 Ionic relaxation
   EDIFFG = 0.1E-03   stopping-criterion for IOM
   NSW    =      0    number of steps for IOM
   NBLOCK =      1;   KBLOCK =      1    inner block; outer block 
   IBRION =     -1    ionic relax: 0-MD 1-quasi-New 2-CG
   NFREE  =      0    steps in history (QN), initial steepest desc. (CG)
   ISIF   =      2    stress and relaxation
   IWAVPR =     10    prediction:  0-non 1-charg 2-wave 3-comb
   ISYM   =      2    0-nonsym 1-usesym 2-fastsym
   LCORR  =      T    Harris-Foulkes like correction to forces

   POTIM  = 0.5000    time-step for ionic-motion
   TEIN   =    0.0    initial temperature
   TEBEG  =    0.0;   TEEND  =   0.0 temperature during run
   SMASS  =  -3.00    Nose mass-parameter (am)
   estimated Nose-frequenzy (Omega)   =  0.10E-29 period in steps = 0.13E+47 mass=  -0.676E-27a.u.
   SCALEE = 1.0000    scale energy and forces
   NPACO  =    256;   APACO  = 10.0  distance and # of slots for P.C.
   PSTRESS=    0.0 pullay stress

  Mass of Ions in am
   POMASS =  28.09
  Ionic Valenz
   ZVAL   =   4.00
  Atomic Wigner-Seitz radii
   RWIGS  =  -1.00
  virtual crystal weights 
   VCA    =   1.00
   NELECT =      27.0000    total number of electrons
   NUPDOWN=      -1.0000    fix difference up-down

 DOS related values:
   EMIN   =  10.00;   EMAX   =-10.00  energy-range for DOS
   EFERMI =   0.00
   ISMEAR =     0;   SIGMA  =   0.05  broadening in eV -4-tet -1-fermi 0-gaus

 Electronic relaxation 2 (details)
   IALGO  =     68    algorithm
   LDIAG  =      T    sub-space diagonalisation (order eigenvalues)
   LSUBROT=      F    optimize rotation matrix (better conditioning)
   TURBO    =      0    0=normal 1=particle mesh
   IRESTART =      0    0=no restart 2=restart with 2 vectors
   NREBOOT  =      0    no. of reboots
   NMIN     =      0    reboot dimension
   EREF     =   0.00    reference energy to select bands
   IMIX   =      4    mixing-type and parameters
     AMIX     =   0.40;   BMIX     =  1.00
     AMIX_MAG =   1.60;   BMIX_MAG =  1.00
     AMIN     =   0.10
     WC   =   100.;   INIMIX=   1;  MIXPRE=   1;  MAXMIX= -45

 Intra band minimization:
   WEIMIN = 0.0000     energy-eigenvalue tresh-hold
   EBREAK =  0.17E-07  absolut break condition
   DEPER  =   0.30     relativ break condition  

   TIME   =   0.40     timestep for ELM

  volume/ion in A,a.u.               =      22.97       155.02
  Fermi-wavevector in a.u.,A,eV,Ry     =   0.903169  1.706742 11.098465  0.815714
  Thomas-Fermi vector in A             =   2.026462
 
 Write flags
   LWAVE        =      T    write WAVECAR
   LDOWNSAMPLE  =      F    k-point downsampling of WAVECAR
   LCHARG       =      T    write CHGCAR
   LVTOT        =      T    write LOCPOT, total local potential
   LVHAR        =      F    write LOCPOT, Hartree potential only
   LELF         =      F    write electronic localiz. function (ELF)
   LORBIT       =     11    0 simple, 1 ext, 2 COOP (PROOUT), +10 PAW based schemes


 Dipole corrections
   LMONO  =      F    monopole corrections only (constant potential shift)
   LDIPOL =      F    correct potential (dipole corrections)
   IDIPOL =      0    1-x, 2-y, 3-z, 4-all directions 
   EPSILON=  1.0000000 bulk dielectric constant

 Exchange correlation treatment:
   GGA     =    PS    GGA type
   LEXCH   =    14    internal setting for exchange type
   LIBXC   =     F    Libxc                    
   VOSKOWN =     0    Vosko Wilk Nusair interpolation
   LHFCALC =     F    Hartree Fock is set to
   LHFONE  =     F    Hartree Fock one center treatment
   AEXX    =    0.0000 exact exchange contribution

 Linear response parameters
   LEPSILON=     F    determine dielectric tensor
   LRPA    =     F    only Hartree local field effects (RPA)
   LNABLA  =     F    use nabla operator in PAW spheres
   LVEL    =     F    velocity operator in full k-point grid
   CSHIFT  =0.1000    complex shift for real part using Kramers Kronig
   OMEGAMAX=  -1.0    maximum frequency
   DEG_THRESHOLD= 0.2000000E-02 threshold for treating states as degnerate
   RTIME   =   -0.100 relaxation time in fs
  (WPLASMAI=    0.000 imaginary part of plasma frequency in eV, 0.658/RTIME)
   DFIELD  = 0.0000000 0.0000000 0.0000000 field for delta impulse in time
 
  Optional k-point grid parameters
   LKPOINTS_OPT  =     F    use optional k-point grid
   KPOINTS_OPT_MODE=     1    mode for optional k-point grid
 
 Orbital magnetization related:
   ORBITALMAG=     F  switch on orbital magnetization
   LCHIMAG   =     F  perturbation theory with respect to B field
   DQ        =  0.001000  dq finite difference perturbation B field
   LLRAUG    =     F  two centre corrections for induced B field



--------------------------------------------------------------------------------------------------------


 Static calculation
 charge density and potential will be updated during run
 spin polarized calculation
 RMM-DIIS sequential band-by-band and
  variant of blocked Davidson during initial phase
 perform sub-space diagonalisation
    before iterative eigenvector-optimisation
 modified Broyden-mixing scheme, WC =      100.0
 initial mixing is a Kerker type mixing with AMIX =  0.4000 and BMIX =      1.0000
 Hartree-type preconditioning will be used
 using additional bands          130
 reciprocal scheme for non local part
 use partial core corrections
 calculate Harris-corrections to forces 
   (improved forces if not selfconsistent)
 use gradient corrections 
 use of overlap-Matrix (Vanderbilt PP)
 Gauss-broadening in eV      SIGMA  =   0.05


--------------------------------------------------------------------------------------------------------


  energy-cutoff  :      500.00
  volume of cell :      160.80
      direct lattice vectors                 reciprocal lattice vectors
     5.437848350  0.000000000  0.000000000     0.183896265  0.000000000  0.000000000
     0.000000000  5.437848350  0.000000000     0.000000000  0.183896265  0.000000000
     0.000000000  0.000000000  5.437848350     0.000000000  0.000000000  0.183896265

  length of vectors
     5.437848350  5.437848350  5.437848350     0.183896265  0.183896265  0.183896265


 
 k-points in units of 2pi/SCALE and weight: pymatgen with grid density = 691 / numbe
   0.00000000  0.00000000  0.00000000       0.016
   0.04597407  0.00000000  0.00000000       0.094
   0.09194813  0.00000000  0.00000000       0.047
   0.04597407  0.04597407  0.00000000       0.188
   0.09194813  0.04597407  0.00000000       0.188
   0.09194813  0.09194813  0.00000000       0.047
   0.04597407  0.04597407  0.04597407       0.125
   0.09194813  0.04597407  0.04597407       0.188
   0.09194813  0.09194813  0.04597407       0.094
   0.09194813  0.09194813  0.09194813       0.016
 
 k-points in reciprocal lattice and weights: pymatgen with grid density = 691 / numbe
   0.00000000  0.00000000  0.00000000       0.016
   0.25000000  0.00000000  0.00000000       0.094
   0.50000000  0.00000000  0.00000000       0.047
   0.25000000  0.25000000  0.00000000       0.188
   0.50000000  0.25000000  0.00000000       0.188
   0.50000000  0.50000000  0.00000000       0.047
   0.25000000  0.25000000  0.25000000       0.125
   0.50000000  0.25000000  0.25000000       0.188
   0.50000000  0.50000000  0.25000000       0.094
   0.50000000  0.50000000  0.50000000       0.016
 
 position of ions in fractional coordinates (direct lattice) 
   0.24194722  0.75805278  0.24194722
   0.00000000  0.00000000  0.50000000
   0.24194722  0.24194722  0.75805278
   0.00000000  0.50000000  0.00000000
   0.75805278  0.75805278  0.75805278
   0.50000000  0.00000000  0.00000000
   0.75805278  0.24194722  0.24194722
 
 position of ions in cartesian coordinates  (Angst):
   1.31567228  4.12217607  1.31567228
   0.00000000  0.00000000  2.71892418
   1.31567228  1.31567228  4.12217607
   0.00000000  2.71892418  0.00000000
   4.12217607  4.12217607  4.12217607
   2.71892418  0.00000000  0.00000000
   4.12217607  1.31567228  1.31567228
 


--------------------------------------------------------------------------------------------------------


 k-point   1 :   0.0000 0.0000 0.0000  plane waves:    4067
 k-point   2 :   0.2500 0.0000 0.0000  plane waves:    4072
 k-point   3 :   0.5000 0.0000 0.0000  plane waves:    4116
 k-point   4 :   0.2500 0.2500 0.0000  plane waves:    4080
 k-point   5 :   0.5000 0.2500 0.0000  plane waves:    4072
 k-point   6 :   0.5000 0.5000 0.0000  plane waves:    4076
 k-point   7 :   0.2500 0.2500 0.2500  plane waves:    4094
 k-point   8 :   0.5000 0.2500 0.2500  plane waves:    4076
 k-point   9 :   0.5000 0.5000 0.2500  plane waves:    4092
 k-point  10 :   0.5000 0.5000 0.5000  plane waves:    4032

 maximum and minimum number of plane-waves per node :      4116     4032

 maximum number of plane-waves:      4116
 maximum index in each direction: 
   IXMAX=    9   IYMAX=    9   IZMAX=    9
   IXMIN=  -10   IYMIN=  -10   IZMIN=  -10


 serial   3D FFT for wavefunctions
 parallel 3D FFT for charge:
    minimum data exchange during FFTs selected (reduces bandwidth)


 total amount of memory used by VASP MPI-rank0    40713. kBytes
=======================================================================

   base      :      30000. kBytes
   nonl-proj :       3140. kBytes
   fftplans  :        508. kBytes
   grid      :       5640. kBytes
   one-center:         43. kBytes
   wavefun   :       1382. kBytes
 
     INWAV:  cpu time      0.0000: real time      0.0000
 Broyden mixing: mesh for mixing (old mesh)
   NGX = 19   NGY = 19   NGZ = 19
  (NGX  = 80   NGY  = 80   NGZ  = 80)
  gives a total of   6859 points

 initial charge density was supplied:
 charge density of overlapping atoms calculated
 number of electron      28.0000000 magnetization       0.0000000
 keeping initial charge density in first step


--------------------------------------------------------------------------------------------------------


 Maximum index for augmentation-charges          665 (set IRDMAX)


--------------------------------------------------------------------------------------------------------


 First call to EWALD:  gamma=   0.326
 Maximum number of real-space cells 3x 3x 3
 Maximum number of reciprocal cells 3x 3x 3

    FEWALD:  cpu time      0.0029: real time      0.0029


--------------------------------------- Iteration      1(   1)  ---------------------------------------


    POTLOK:  cpu time      0.0403: real time      0.0472
    SETDIJ:  cpu time      0.1812: real time      0.1812
     EDDAV:  cpu time      5.2085: real time      5.2098
       DOS:  cpu time      0.0030: real time      0.0032
    --------------------------------------------
      LOOP:  cpu time      5.4331: real time      5.4414

 eigenvalue-minimisations  :  5760
 total energy-change (2. order) :-0.2405521E+02  (-0.1092284E+04)
 number of electron      28.0000000 magnetization       0.0000000
 augmentation part       28.0000000 magnetization       0.0000000

 Free energy of the ion-electron system (eV)
  ---------------------------------------------------
  alpha Z        PSCENC =        10.25815623
  Ewald energy   TEWEN  =      -734.74418566
  -Hartree energ DENC   =       -66.07814922
  -exchange      EXHF   =         0.00000000
  -V(xc)+E(xc)   XCENC  =       -62.30655279
  PAW double counting   =       612.34974655     -491.33201702
  entropy T*S    EENTRO =        -0.00492664
  eigenvalues    EBANDS =       -10.22539731
  atomic energy  EATOM  =       718.02812073
  Solvation  Ediel_sol  =         0.00000000
  ---------------------------------------------------
  free energy    TOTEN  =       -24.05520515 eV

  energy without entropy =      -24.05027850  energy(sigma->0) =      -24.05274182


--------------------------------------------------------------------------------------------------------




--------------------------------------- Iteration      1(   2)  ---------------------------------------


     EDDAV:  cpu time     12.3793: real time     12.3969
       DOS:  cpu time      0.0029: real time      0.0029
    --------------------------------------------
      LOOP:  cpu time     12.3822: real time     12.3997

 eigenvalue-minimisations  :  8640
 total energy-change (2. order) :-0.1822530E+02  (-0.1822493E+02)
 number of electron      28.0000000 magnetization       0.0000000
 augmentation part       28.0000000 magnetization       0.0000000

 Free energy of the ion-electron system (eV)
  ---------------------------------------------------
  alpha Z        PSCENC =        10.25815623
  Ewald energy   TEWEN  =      -734.74418566
  -Hartree energ DENC   =       -66.07814922
  -exchange      EXHF   =         0.00000000
  -V(xc)+E(xc)   XCENC  =       -62.30655279
  PAW double counting   =       612.34974655     -491.33201702
  entropy T*S    EENTRO =        -0.00528927
  eigenvalues    EBANDS =       -28.45033327
  atomic energy  EATOM  =       718.02812073
  Solvation  Ediel_sol  =         0.00000000
  ---------------------------------------------------
  free energy    TOTEN  =       -42.28050373 eV

  energy without entropy =      -42.27521446  energy(sigma->0) =      -42.27785910


--------------------------------------------------------------------------------------------------------




--------------------------------------- Iteration      1(   3)  ---------------------------------------


     EDDAV:  cpu time      5.3173: real time      5.3358
       DOS:  cpu time      0.0028: real time      0.0028
    --------------------------------------------
      LOOP:  cpu time      5.3201: real time      5.3386

 eigenvalue-minimisations  :  5760
 total energy-change (2. order) :-0.1472847E-01  (-0.1472846E-01)
 number of electron      28.0000000 magnetization       0.0000000
 augmentation part       28.0000000 magnetization       0.0000000

 Free energy of the ion-electron system (eV)
  ---------------------------------------------------
  alpha Z        PSCENC =        10.25815623
  Ewald energy   TEWEN  =      -734.74418566
  -Hartree energ DENC   =       -66.07814922
  -exchange      EXHF   =         0.00000000
  -V(xc)+E(xc)   XCENC  =       -62.30655279
  PAW double counting   =       612.34974655     -491.33201702
  entropy T*S    EENTRO =        -0.00528928
  eigenvalues    EBANDS =       -28.46506172
  atomic energy  EATOM  =       718.02812073
  Solvation  Ediel_sol  =         0.00000000
  ---------------------------------------------------
  free energy    TOTEN  =       -42.29523220 eV

  energy without entropy =      -42.28994292  energy(sigma->0) =      -42.29258756


--------------------------------------------------------------------------------------------------------




--------------------------------------- Iteration      1(   4)  ---------------------------------------


     EDDAV:  cpu time     25.4977: real time     25.5194
       DOS:  cpu time      0.0028: real time      0.0028
    --------------------------------------------
      LOOP:  cpu time     25.5005: real time     25.5222

 eigenvalue-minimisations  : 11520
 total energy-change (2. order) :-0.8047427E-05  (-0.8047318E-05)
 number of electron      28.0000000 magnetization       0.0000000
 augmentation part       28.0000000 magnetization       0.0000000

 Free energy of the ion-electron system (eV)
  ---------------------------------------------------
  alpha Z        PSCENC =        10.25815623
  Ewald energy   TEWEN  =      -734.74418566
  -Hartree energ DENC   =       -66.07814922
  -exchange      EXHF   =         0.00000000
  -V(xc)+E(xc)   XCENC  =       -62.30655279
  PAW double counting   =       612.34974655     -491.33201702
  entropy T*S    EENTRO =        -0.00528928
  eigenvalues    EBANDS =       -28.46506977
  atomic energy  EATOM  =       718.02812073
  Solvation  Ediel_sol  =         0.00000000
  ---------------------------------------------------
  free energy    TOTEN  =       -42.29524024 eV

  energy without entropy =      -42.28995097  energy(sigma->0) =      -42.29259561


--------------------------------------------------------------------------------------------------------




--------------------------------------- Iteration      1(   5)  ---------------------------------------


     EDDAV:  cpu time      5.6861: real time      5.7028
       DOS:  cpu time      0.0028: real time      0.0028
    CHARGE:  cpu time      0.0448: real time      0.0449
    MIXING:  cpu time      0.0020: real time      0.0022
    --------------------------------------------
      LOOP:  cpu time      5.7358: real time      5.7527

 eigenvalue-minimisations  :  5760
 total energy-change (2. order) : 0.2204388E-09  (-0.3392381E-11)
 number of electron      27.0000001 magnetization      -0.0000000
 augmentation part       -1.6354417 magnetization       0.0000000

 Broyden mixing:
  rms(total) = 0.87259E+00    rms(broyden)= 0.86902E+00
  rms(prec ) = 0.12685E+01
  weight for this iteration     100.00

 Free energy of the ion-electron system (eV)
  ---------------------------------------------------
  alpha Z        PSCENC =        10.25815623
  Ewald energy   TEWEN  =      -734.74418566
  -Hartree energ DENC   =       -66.07814922
  -exchange      EXHF   =         0.00000000
  -V(xc)+E(xc)   XCENC  =       -62.30655279
  PAW double counting   =       612.34974655     -491.33201702
  entropy T*S    EENTRO =        -0.00528928
  eigenvalues    EBANDS =       -28.46506977
  atomic energy  EATOM  =       718.02812073
  Solvation  Ediel_sol  =         0.00000000
  ---------------------------------------------------
  free energy    TOTEN  =       -42.29524024 eV

  energy without entropy =      -42.28995097  energy(sigma->0) =      -42.29259561


--------------------------------------------------------------------------------------------------------




--------------------------------------- Iteration      1(   6)  ---------------------------------------


    POTLOK:  cpu time      0.0400: real time      0.0423
    SETDIJ:  cpu time      0.1999: real time      0.1999
    EDDIAG:  cpu time      0.8050: real time      0.8054
  RMM-DIIS:  cpu time      0.1929: real time      0.1932
    ORTHCH:  cpu time      0.1151: real time      0.1151
       DOS:  cpu time      0.0025: real time      0.0025
    CHARGE:  cpu time      0.0388: real time      0.0388
    MIXING:  cpu time      0.0006: real time      0.0006
    --------------------------------------------
      LOOP:  cpu time      1.3948: real time      1.3979

 eigenvalue-minimisations  :  5799
 total energy-change (2. order) : 0.5081754E+00  (-0.1387702E-02)
 number of electron      27.0000001 magnetization       0.0000000
 augmentation part       -1.6362544 magnetization       0.0000000

 Broyden mixing:
  rms(total) = 0.50271E+00    rms(broyden)= 0.50271E+00
  rms(prec ) = 0.69244E+00
  weight for this iteration     100.00

 eigenvalues of (default mixing * dielectric matrix)
  average eigenvalue GAMMA=   2.3155
  2.3155

 Free energy of the ion-electron system (eV)
  ---------------------------------------------------
  alpha Z        PSCENC =        10.25815623
  Ewald energy   TEWEN  =      -734.74418566
  -Hartree energ DENC   =       -71.10646141
  -exchange      EXHF   =         0.00000000
  -V(xc)+E(xc)   XCENC  =       -64.31303934
  PAW double counting   =      1232.05012726    -1111.24631510
  entropy T*S    EENTRO =        -0.00528928
  eigenvalues    EBANDS =       -20.70817829
  atomic energy  EATOM  =       718.02812073
  Solvation  Ediel_sol  =         0.00000000
  ---------------------------------------------------
  free energy    TOTEN  =       -41.78706486 eV

  energy without entropy =      -41.78177558  energy(sigma->0) =      -41.78442022


--------------------------------------------------------------------------------------------------------




--------------------------------------- Iteration      1(   7)  ---------------------------------------


    POTLOK:  cpu time      0.0319: real time      0.0371
    SETDIJ:  cpu time      0.2001: real time      0.2001
    EDDIAG:  cpu time      0.7886: real time      0.7887
  RMM-DIIS:  cpu time      0.3056: real time      0.3056
    ORTHCH:  cpu time      0.1122: real time      0.1122
       DOS:  cpu time      0.0025: real time      0.0025
    CHARGE:  cpu time      0.0371: real time      0.0371
    MIXING:  cpu time      0.0004: real time      0.0004
    --------------------------------------------
      LOOP:  cpu time      1.4784: real time      1.4837

 eigenvalue-minimisations  :  6876
 total energy-change (2. order) : 0.2081568E+00  (-0.2346692E-02)
 number of electron      27.0000001 magnetization      -0.0000005
 augmentation part       -1.6273944 magnetization      -0.0000002

 Broyden mixing:
  rms(total) = 0.79490E-01    rms(broyden)= 0.79489E-01
  rms(prec ) = 0.12793E+00
  weight for this iteration     100.00

 eigenvalues of (default mixing * dielectric matrix)
  average eigenvalue GAMMA=   1.8697
  1.4177  2.3216

 Free energy of the ion-electron system (eV)
  ---------------------------------------------------
  alpha Z        PSCENC =        10.25815623
  Ewald energy   TEWEN  =      -734.74418566
  -Hartree energ DENC   =       -77.24049497
  -exchange      EXHF   =         0.00000000
  -V(xc)+E(xc)   XCENC  =       -63.49668980
  PAW double counting   =      2341.12710293    -2220.57151590
  entropy T*S    EENTRO =        -0.00528928
  eigenvalues    EBANDS =       -14.93411237
  atomic energy  EATOM  =       718.02812073
  Solvation  Ediel_sol  =         0.00000000
  ---------------------------------------------------
  free energy    TOTEN  =       -41.57890808 eV

  energy without entropy =      -41.57361881  energy(sigma->0) =      -41.57626344


--------------------------------------------------------------------------------------------------------




--------------------------------------- Iteration      1(   8)  ---------------------------------------


    POTLOK:  cpu time      0.0212: real time      0.0392
    SETDIJ:  cpu time      0.2002: real time      0.2002
    EDDIAG:  cpu time      0.7725: real time      0.7725
  RMM-DIIS:  cpu time      0.2691: real time      0.2692
    ORTHCH:  cpu time      0.1128: real time      0.1128
       DOS:  cpu time      0.0023: real time      0.0023
    CHARGE:  cpu time      0.0374: real time      0.0374
    MIXING:  cpu time      0.0004: real time      0.0004
    --------------------------------------------
      LOOP:  cpu time      1.4160: real time      1.4342

 eigenvalue-minimisations  :  6131
 total energy-change (2. order) : 0.8087382E-02  (-0.2410353E-03)
 number of electron      27.0000001 magnetization      -0.0000007
 augmentation part       -1.6294730 magnetization       0.0000000

 Broyden mixing:
  rms(total) = 0.19692E-01    rms(broyden)= 0.19692E-01
  rms(prec ) = 0.30050E-01
  weight for this iteration     100.00

 eigenvalues of (default mixing * dielectric matrix)
  average eigenvalue GAMMA=   1.5631
  2.2662  1.1806  1.2425

 Free energy of the ion-electron system (eV)
  ---------------------------------------------------
  alpha Z        PSCENC =        10.25815623
  Ewald energy   TEWEN  =      -734.74418566
  -Hartree energ DENC   =       -77.00218633
  -exchange      EXHF   =         0.00000000
  -V(xc)+E(xc)   XCENC  =       -63.42498631
  PAW double counting   =      2498.20072202    -2377.64156591
  entropy T*S    EENTRO =        -0.00528928
  eigenvalues    EBANDS =       -15.23960619
  atomic energy  EATOM  =       718.02812073
  Solvation  Ediel_sol  =         0.00000000
  ---------------------------------------------------
  free energy    TOTEN  =       -41.57082070 eV

  energy without entropy =      -41.56553142  energy(sigma->0) =      -41.56817606


--------------------------------------------------------------------------------------------------------




--------------------------------------- Iteration      1(   9)  ---------------------------------------


    POTLOK:  cpu time      0.0312: real time      0.0394
    SETDIJ:  cpu time      0.1998: real time      0.1998
    EDDIAG:  cpu time      0.7687: real time      0.7687
  RMM-DIIS:  cpu time      0.3082: real time      0.3082
    ORTHCH:  cpu time      0.1113: real time      0.1113
       DOS:  cpu time      0.0025: real time      0.0025
    CHARGE:  cpu time      0.0366: real time      0.0366
    MIXING:  cpu time      0.0004: real time      0.0004
    --------------------------------------------
      LOOP:  cpu time      1.4588: real time      1.4670

 eigenvalue-minimisations  :  6684
 total energy-change (2. order) : 0.6788608E-04  (-0.2764330E-04)
 number of electron      27.0000001 magnetization      -0.0000005
 augmentation part       -1.6299506 magnetization       0.0000002

 Broyden mixing:
  rms(total) = 0.13161E-01    rms(broyden)= 0.13161E-01
  rms(prec ) = 0.16580E-01
  weight for this iteration     100.00

 eigenvalues of (default mixing * dielectric matrix)
  average eigenvalue GAMMA=   1.9981
  1.2557  1.2557  2.7405  2.7405

 Free energy of the ion-electron system (eV)
  ---------------------------------------------------
  alpha Z        PSCENC =        10.25815623
  Ewald energy   TEWEN  =      -734.74418566
  -Hartree energ DENC   =       -77.18503008
  -exchange      EXHF   =         0.00000000
  -V(xc)+E(xc)   XCENC  =       -63.39133593
  PAW double counting   =      2529.08079034    -2408.52557079
  entropy T*S    EENTRO =        -0.00528928
  eigenvalues    EBANDS =       -15.08640837
  atomic energy  EATOM  =       718.02812073
  Solvation  Ediel_sol  =         0.00000000
  ---------------------------------------------------
  free energy    TOTEN  =       -41.57075281 eV

  energy without entropy =      -41.56546354  energy(sigma->0) =      -41.56810818


--------------------------------------------------------------------------------------------------------




--------------------------------------- Iteration      1(  10)  ---------------------------------------


    POTLOK:  cpu time      0.0216: real time      0.0398
    SETDIJ:  cpu time      0.2000: real time      0.2001
    EDDIAG:  cpu time      0.7640: real time      0.7640
  RMM-DIIS:  cpu time      0.3058: real time      0.3058
    ORTHCH:  cpu time      0.1109: real time      0.1109
       DOS:  cpu time      0.0026: real time      0.0026
    CHARGE:  cpu time      0.0366: real time      0.0366
    MIXING:  cpu time      0.0005: real time      0.0005
    --------------------------------------------
      LOOP:  cpu time      1.4420: real time      1.4603

 eigenvalue-minimisations  :  6449
 total energy-change (2. order) :-0.6769067E-04  (-0.8238348E-05)
 number of electron      27.0000001 magnetization      -0.0000003
 augmentation part       -1.6308178 magnetization      -0.0000000

 Broyden mixing:
  rms(total) = 0.35803E-02    rms(broyden)= 0.35803E-02
  rms(prec ) = 0.67488E-02
  weight for this iteration     100.00

 eigenvalues of (default mixing * dielectric matrix)
  average eigenvalue GAMMA=   1.7566
  2.6287  0.9884  2.1576  1.5041  1.5041

 Free energy of the ion-electron system (eV)
  ---------------------------------------------------
  alpha Z        PSCENC =        10.25815623
  Ewald energy   TEWEN  =      -734.74418566
  -Hartree energ DENC   =       -77.07094347
  -exchange      EXHF   =         0.00000000
  -V(xc)+E(xc)   XCENC  =       -63.38884884
  PAW double counting   =      2482.10039463    -2361.53701653
  entropy T*S    EENTRO =        -0.00528928
  eigenvalues    EBANDS =       -15.21120831
  atomic energy  EATOM  =       718.02812073
  Solvation  Ediel_sol  =         0.00000000
  ---------------------------------------------------
  free energy    TOTEN  =       -41.57082051 eV

  energy without entropy =      -41.56553123  energy(sigma->0) =      -41.56817587


--------------------------------------------------------------------------------------------------------




--------------------------------------- Iteration      1(  11)  ---------------------------------------


    POTLOK:  cpu time      0.0187: real time      0.0364
    SETDIJ:  cpu time      0.1999: real time      0.1999
    EDDIAG:  cpu time      0.7579: real time      0.7580
  RMM-DIIS:  cpu time      0.3168: real time      0.3168
    ORTHCH:  cpu time      0.1115: real time      0.1115
       DOS:  cpu time      0.0026: real time      0.0026
    CHARGE:  cpu time      0.0371: real time      0.0371
    MIXING:  cpu time      0.0005: real time      0.0005
    --------------------------------------------
      LOOP:  cpu time      1.4450: real time      1.4628

 eigenvalue-minimisations  :  6868
 total energy-change (2. order) : 0.3747325E-04  (-0.9896284E-06)
 number of electron      27.0000001 magnetization      -0.0000001
 augmentation part       -1.6306737 magnetization       0.0000001

 Broyden mixing:
  rms(total) = 0.23221E-02    rms(broyden)= 0.23221E-02
  rms(prec ) = 0.24342E-02
  weight for this iteration     100.00

 eigenvalues of (default mixing * dielectric matrix)
  average eigenvalue GAMMA=   1.7828
  2.8870  2.4569  1.9797  1.4350  0.9692  0.9692

 Free energy of the ion-electron system (eV)
  ---------------------------------------------------
  alpha Z        PSCENC =        10.25815623
  Ewald energy   TEWEN  =      -734.74418566
  -Hartree energ DENC   =       -77.15284933
  -exchange      EXHF   =         0.00000000
  -V(xc)+E(xc)   XCENC  =       -63.38055937
  PAW double counting   =      2495.33923515    -2374.77974589
  entropy T*S    EENTRO =        -0.00528928
  eigenvalues    EBANDS =       -15.13366562
  atomic energy  EATOM  =       718.02812073
  Solvation  Ediel_sol  =         0.00000000
  ---------------------------------------------------
  free energy    TOTEN  =       -41.57078303 eV

  energy without entropy =      -41.56549375  energy(sigma->0) =      -41.56813839


--------------------------------------------------------------------------------------------------------




--------------------------------------- Iteration      1(  12)  ---------------------------------------


    POTLOK:  cpu time      0.0189: real time      0.0337
    SETDIJ:  cpu time      0.2005: real time      0.2006
    EDDIAG:  cpu time      0.7529: real time      0.7529
  RMM-DIIS:  cpu time      0.3127: real time      0.3128
    ORTHCH:  cpu time      0.1110: real time      0.1110
       DOS:  cpu time      0.0025: real time      0.0025
    --------------------------------------------
      LOOP:  cpu time      1.3986: real time      1.4135

 eigenvalue-minimisations  :  5456
 total energy-change (2. order) :-0.6123582E-06  (-0.1249163E-06)
 number of electron      27.0000001 magnetization      -0.0000001
 augmentation part       -1.6306737 magnetization       0.0000001

 Free energy of the ion-electron system (eV)
  ---------------------------------------------------
  alpha Z        PSCENC =        10.25815623
  Ewald energy   TEWEN  =      -734.74418566
  -Hartree energ DENC   =       -77.16092155
  -exchange      EXHF   =         0.00000000
  -V(xc)+E(xc)   XCENC  =       -63.38016012
  PAW double counting   =      2488.26677272    -2367.70750381
  entropy T*S    EENTRO =        -0.00528928
  eigenvalues    EBANDS =       -15.12577289
  atomic energy  EATOM  =       718.02812073
  Solvation  Ediel_sol  =         0.00000000
  ---------------------------------------------------
  free energy    TOTEN  =       -41.57078364 eV

  energy without entropy =      -41.56549437  energy(sigma->0) =      -41.56813901


--------------------------------------------------------------------------------------------------------




 average (electrostatic) potential at core
  the test charge radii are     0.9892
  (the norm of the test charge is              1.0000)
       1 -84.8499       2 -84.4497       3 -84.8499       4 -84.4497       5 -84.8499
       6 -84.4497       7 -84.8499
 
 
 
 E-fermi :   4.3033     XC(G=0):  -8.8891     alpha+bet :-10.4276

 Fermi energy:         4.3032884445

 spin component 1

 k-point     1 :       0.0000    0.0000    0.0000
  band No.  band energies     occupation 
      1      -7.0649      1.00000
      2      -3.3749      1.00000
      3      -3.3749      1.00000
      4      -3.0040      1.00000
      5      -3.0040      1.00000
      6      -3.0040      1.00000
      7       1.5689      1.00000
      8       1.6785      1.00000
      9       1.6785      1.00000
     10       1.6785      1.00000
     11       2.6749      1.00000
     12       2.6749      1.00000
     13       2.6749      1.00000
     14       5.6850      0.00000
     15       5.6850      0.00000
     16       5.6850      0.00000
     17       5.9453      0.00000
     18       5.9542      0.00000
     19       5.9542      0.00000
     20       6.1397      0.00000
     21       6.1397      0.00000
     22       6.1397      0.00000
     23       9.0683      0.00000
     24       9.0683      0.00000
     25       9.0683      0.00000
     26      10.6693      0.00000
     27      12.8539      0.00000
     28      12.8539      0.00000
     29      13.5086      0.00000
     30      14.6911      0.00000
     31      14.6911      0.00000
     32      14.6911      0.00000
     33      15.3389      0.00000
     34      15.3389      0.00000
     35      15.3389      0.00000
     36      15.3807      0.00000
     37      15.3807      0.00000
     38      15.3807      0.00000
     39      16.5884      0.00000
     40      16.5884      0.00000
     41      16.5884      0.00000
     42      17.0713      0.00000
     43      17.4619      0.00000
     44      17.4619      0.00000
     45      17.5431      0.00000
     46      17.5431      0.00000
     47      17.5431      0.00000
     48      18.6030      0.00000
     49      18.6030      0.00000
     50      18.6030      0.00000
     51      19.2382      0.00000
     52      19.4422      0.00000
     53      19.4422      0.00000
     54      20.3301      0.00000
     55      21.1382      0.00000
     56      21.1382      0.00000
     57      21.1382      0.00000
     58      23.4740      0.00000
     59      23.8189      0.00000
     60      23.8189      0.00000
     61      23.8189      0.00000
     62      24.6588      0.00000
     63      24.6588      0.00000
     64      24.6588      0.00000
     65      25.1248      0.00000
     66      25.1248      0.00000
     67      25.1248      0.00000
     68      25.2925      0.00000
     69      25.2925      0.00000
     70      25.2925      0.00000
     71      26.0640      0.00000
     72      26.0640      0.00000
     73      26.1879      0.00000
     74      26.1879      0.00000
     75      26.6426      0.00000
     76      26.6426      0.00000
     77      26.6426      0.00000
     78      27.5171      0.00000
     79      27.5171      0.00000
     80      27.5171      0.00000
     81      27.7237      0.00000
     82      28.1247      0.00000
     83      28.1247      0.00000
     84      28.1247      0.00000
     85      29.3083      0.00000
     86      29.3083      0.00000
     87      31.0833      0.00000
     88      31.4951      0.00000
     89      31.4951      0.00000
     90      31.4951      0.00000
     91      32.8744      0.00000
     92      32.8744      0.00000
     93      33.6160      0.00000
     94      33.6160      0.00000
     95      33.6160      0.00000
     96      33.6223      0.00000
     97      33.6223      0.00000
     98      33.6223      0.00000
     99      36.1694      0.00000
    100      36.1694      0.00000
    101      36.1694      0.00000
    102      37.0662      0.00000
    103      37.0662      0.00000
    104      37.0662      0.00000
    105      39.0556      0.00000
    106      39.0556      0.00000
    107      39.1658      0.00000
    108      39.1658      0.00000
    109      39.1658      0.00000
    110      39.2143      0.00000
    111      39.2143      0.00000
    112      39.2143      0.00000
    113      39.5003      0.00000
    114      40.5195      0.00000
    115      40.5195      0.00000
    116      40.5195      0.00000
    117      40.5895      0.00000
    118      40.9179      0.00000
    119      40.9179      0.00000
    120      40.9179      0.00000
    121      42.1483      0.00000
    122      42.1483      0.00000
    123      42.5581      0.00000
    124      42.5581      0.00000
    125      42.5581      0.00000
    126      42.6988      0.00000
    127      42.9181      0.00000
    128      43.1307      0.00000
    129      43.1307      0.00000
    130      43.1307      0.00000
    131      43.3715      0.00000
    132      43.3715      0.00000
    133      44.3262      0.00000
    134      44.3262      0.00000
    135      44.3262      0.00000
    136      45.1014      0.00000
    137      45.1024      0.00000
    138      45.3287      0.00000
    139      45.3287      0.00000
    140      45.3287      0.00000
    141      45.4443      0.00000
    142      45.4443      0.00000
    143      45.4443      0.00000
    144      46.1975      0.00000

 k-point     2 :       0.2500    0.0000    0.0000
  band No.  band energies     occupation 
      1      -6.8291      1.00000
      2      -4.6975      1.00000
      3      -3.3144      1.00000
      4      -2.9391      1.00000
      5      -2.9391      1.00000
      6      -1.5823      1.00000
      7       1.2471      1.00000
      8       1.3987      1.00000
      9       1.3987      1.00000
     10       1.6600      1.00000
     11       2.1158      1.00000
     12       2.5357      1.00000
     13       2.5357      1.00000
     14       5.0579      0.00000
     15       5.5379      0.00000
     16       5.5379      0.00000
     17       5.7929      0.00000
     18       6.3993      0.00000
     19       6.9381      0.00000
     20       6.9381      0.00000
     21       7.0830      0.00000
     22       7.2858      0.00000
     23       8.6987      0.00000
     24       9.9934      0.00000
     25       9.9934      0.00000
     26      10.9005      0.00000
     27      12.1630      0.00000
     28      12.3265      0.00000
     29      12.3265      0.00000
     30      12.6216      0.00000
     31      13.1317      0.00000
     32      13.5808      0.00000
     33      14.6075      0.00000
     34      14.6470      0.00000
     35      14.6470      0.00000
     36      14.8454      0.00000
     37      15.7741      0.00000
     38      15.7741      0.00000
     39      16.1225      0.00000
     40      16.7696      0.00000
     41      16.9323      0.00000
     42      16.9323      0.00000
     43      17.2225      0.00000
     44      17.4862      0.00000
     45      18.0224      0.00000
     46      18.4209      0.00000
     47      18.4209      0.00000
     48      19.2091      0.00000
     49      19.2091      0.00000
     50      19.4977      0.00000
     51      19.8095      0.00000
     52      20.1127      0.00000
     53      20.9498      0.00000
     54      21.2229      0.00000
     55      21.5001      0.00000
     56      21.5001      0.00000
     57      21.6619      0.00000
     58      22.3336      0.00000
     59      22.5344      0.00000
     60      22.5344      0.00000
     61      23.0887      0.00000
     62      23.5081      0.00000
     63      23.5081      0.00000
     64      23.9172      0.00000
     65      24.3580      0.00000
     66      24.4529      0.00000
     67      24.6630      0.00000
     68      24.6630      0.00000
     69      25.2642      0.00000
     70      25.6203      0.00000
     71      25.6203      0.00000
     72      26.3291      0.00000
     73      26.9778      0.00000
     74      27.3377      0.00000
     75      27.3377      0.00000
     76      27.8820      0.00000
     77      27.9315      0.00000
     78      28.1700      0.00000
     79      28.5971      0.00000
     80      28.7725      0.00000
     81      28.7725      0.00000
     82      28.8017      0.00000
     83      29.4322      0.00000
     84      29.7560      0.00000
     85      29.7560      0.00000
     86      30.1205      0.00000
     87      30.5980      0.00000
     88      30.8956      0.00000
     89      31.3557      0.00000
     90      31.5437      0.00000
     91      31.5437      0.00000
     92      32.7184      0.00000
     93      32.7184      0.00000
     94      32.8193      0.00000
     95      34.1789      0.00000
     96      34.8476      0.00000
     97      34.8476      0.00000
     98      34.9190      0.00000
     99      35.2209      0.00000
    100      35.9353      0.00000
    101      35.9353      0.00000
    102      36.7687      0.00000
    103      36.7687      0.00000
    104      36.9220      0.00000
    105      36.9627      0.00000
    106      37.3570      0.00000
    107      37.3811      0.00000
    108      37.5179      0.00000
    109      37.5179      0.00000
    110      38.4458      0.00000
    111      38.4458      0.00000
    112      38.5949      0.00000
    113      38.6659      0.00000
    114      39.9626      0.00000
    115      40.0638      0.00000
    116      40.0638      0.00000
    117      40.6313      0.00000
    118      40.6814      0.00000
    119      40.7510      0.00000
    120      40.7510      0.00000
    121      41.0639      0.00000
    122      41.8975      0.00000
    123      42.0281      0.00000
    124      42.3177      0.00000
    125      42.4432      0.00000
    126      42.4432      0.00000
    127      42.7853      0.00000
    128      43.4207      0.00000
    129      43.4207      0.00000
    130      43.7155      0.00000
    131      44.4260      0.00000
    132      44.5033      0.00000
    133      44.6692      0.00000
    134      44.6693      0.00000
    135      44.7011      0.00000
    136      44.8965      0.00000
    137      45.0160      0.00000
    138      45.0160      0.00000
    139      45.1728      0.00000
    140      45.3921      0.00000
    141      45.7352      0.00000
    142      45.7353      0.00000
    143      46.2897      0.00000
    144      46.3072      0.00000

 k-point     3 :       0.5000    0.0000    0.0000
  band No.  band energies     occupation 
      1      -6.3812      1.00000
      2      -5.5871      1.00000
      3      -3.2496      1.00000
      4      -2.8689      1.00000
      5      -2.8689      1.00000
      6      -0.4562      1.00000
      7       0.6033      1.00000
      8       0.8929      1.00000
      9       1.0882      1.00000
     10       1.0882      1.00000
     11       2.5626      1.00000
     12       2.5626      1.00000
     13       3.0395      1.00000
     14       3.7964      1.00000
     15       5.1203      0.00000
     16       5.1203      0.00000
     17       6.1415      0.00000
     18       6.5845      0.00000
     19       8.0728      0.00000
     20       9.0676      0.00000
     21       9.0676      0.00000
     22       9.2933      0.00000
     23       9.4404      0.00000
     24       9.6884      0.00000
     25       9.6884      0.00000
     26       9.7346      0.00000
     27      10.4575      0.00000
     28      10.6235      0.00000
     29      11.3146      0.00000
     30      11.3146      0.00000
     31      13.2990      0.00000
     32      13.2990      0.00000
     33      13.4121      0.00000
     34      14.4006      0.00000
     35      14.7091      0.00000
     36      14.7625      0.00000
     37      15.3764      0.00000
     38      15.7452      0.00000
     39      15.7452      0.00000
     40      16.4940      0.00000
     41      17.0199      0.00000
     42      17.4907      0.00000
     43      17.6266      0.00000
     44      17.6266      0.00000
     45      18.2534      0.00000
     46      18.4132      0.00000
     47      18.8022      0.00000
     48      18.8022      0.00000
     49      19.7040      0.00000
     50      19.8346      0.00000
     51      19.8346      0.00000
     52      20.7405      0.00000
     53      21.6094      0.00000
     54      21.6094      0.00000
     55      21.6508      0.00000
     56      21.7886      0.00000
     57      22.2809      0.00000
     58      22.2809      0.00000
     59      22.5271      0.00000
     60      22.5271      0.00000
     61      22.9427      0.00000
     62      23.0247      0.00000
     63      23.6290      0.00000
     64      23.6290      0.00000
     65      24.0249      0.00000
     66      24.0255      0.00000
     67      24.1143      0.00000
     68      24.8058      0.00000
     69      24.9509      0.00000
     70      25.6306      0.00000
     71      26.4821      0.00000
     72      26.4821      0.00000
     73      26.5778      0.00000
     74      26.7253      0.00000
     75      27.2612      0.00000
     76      27.2612      0.00000
     77      27.2882      0.00000
     78      27.4796      0.00000
     79      29.5293      0.00000
     80      29.8144      0.00000
     81      30.0209      0.00000
     82      30.0209      0.00000
     83      30.3169      0.00000
     84      31.4084      0.00000
     85      31.6480      0.00000
     86      31.7330      0.00000
     87      31.7330      0.00000
     88      32.0159      0.00000
     89      32.2751      0.00000
     90      32.5400      0.00000
     91      32.5400      0.00000
     92      32.6786      0.00000
     93      32.6786      0.00000
     94      32.6844      0.00000
     95      33.9482      0.00000
     96      33.9712      0.00000
     97      34.2506      0.00000
     98      34.2506      0.00000
     99      34.4859      0.00000
    100      34.6468      0.00000
    101      34.7230      0.00000
    102      34.7230      0.00000
    103      35.0594      0.00000
    104      35.5508      0.00000
    105      35.5508      0.00000
    106      35.8367      0.00000
    107      36.4783      0.00000
    108      36.4783      0.00000
    109      36.7613      0.00000
    110      38.1072      0.00000
    111      38.2153      0.00000
    112      38.2153      0.00000
    113      39.0421      0.00000
    114      39.7787      0.00000
    115      39.9323      0.00000
    116      40.4581      0.00000
    117      40.5543      0.00000
    118      40.5849      0.00000
    119      40.5849      0.00000
    120      41.3812      0.00000
    121      41.3812      0.00000
    122      41.5584      0.00000
    123      41.7506      0.00000
    124      42.0876      0.00000
    125      42.0876      0.00000
    126      42.2014      0.00000
    127      42.7926      0.00000
    128      42.7926      0.00000
    129      42.9479      0.00000
    130      43.0047      0.00000
    131      43.4473      0.00000
    132      43.4473      0.00000
    133      44.1917      0.00000
    134      44.5891      0.00000
    135      44.8514      0.00000
    136      44.8514      0.00000
    137      45.0925      0.00000
    138      45.1747      0.00000
    139      45.1747      0.00000
    140      45.5858      0.00000
    141      45.8704      0.00000
    142      46.0548      0.00000
    143      46.7303      0.00000
    144      46.7427      0.00000

 k-point     4 :       0.2500    0.2500    0.0000
  band No.  band energies     occupation 
      1      -6.5954      1.00000
      2      -4.7713      1.00000
      3      -4.3003      1.00000
      4      -2.9902      1.00000
      5      -2.0946      1.00000
      6      -1.2132      1.00000
      7       0.4479      1.00000
      8       1.2579      1.00000
      9       1.4742      1.00000
     10       1.7952      1.00000
     11       1.8253      1.00000
     12       2.7543      1.00000
     13       2.7804      1.00000
     14       4.3033      0.50000
     15       5.0303      0.00000
     16       5.8705      0.00000
     17       6.2129      0.00000
     18       6.8116      0.00000
     19       7.1573      0.00000
     20       7.4867      0.00000
     21       7.5575      0.00000
     22       8.9799      0.00000
     23       9.6147      0.00000
     24       9.6536      0.00000
     25       9.8589      0.00000
     26      10.2038      0.00000
     27      11.5837      0.00000
     28      11.6025      0.00000
     29      12.2227      0.00000
     30      12.2899      0.00000
     31      12.6830      0.00000
     32      13.2219      0.00000
     33      13.2236      0.00000
     34      14.1790      0.00000
     35      14.4771      0.00000
     36      15.0592      0.00000
     37      15.1186      0.00000
     38      15.3891      0.00000
     39      16.0091      0.00000
     40      16.3748      0.00000
     41      16.5482      0.00000
     42      16.7610      0.00000
     43      17.7765      0.00000
     44      18.1518      0.00000
     45      18.5873      0.00000
     46      18.8211      0.00000
     47      18.8927      0.00000
     48      19.2562      0.00000
     49      19.4956      0.00000
     50      19.6209      0.00000
     51      19.9334      0.00000
     52      20.1537      0.00000
     53      20.3323      0.00000
     54      21.1574      0.00000
     55      21.2843      0.00000
     56      21.6594      0.00000
     57      21.7615      0.00000
     58      22.4497      0.00000
     59      22.6217      0.00000
     60      22.7581      0.00000
     61      22.9385      0.00000
     62      23.2016      0.00000
     63      23.4500      0.00000
     64      23.9387      0.00000
     65      24.4648      0.00000
     66      24.9547      0.00000
     67      25.1844      0.00000
     68      25.2310      0.00000
     69      25.8717      0.00000
     70      25.9196      0.00000
     71      26.4573      0.00000
     72      26.4895      0.00000
     73      26.7359      0.00000
     74      27.0468      0.00000
     75      27.3102      0.00000
     76      27.6518      0.00000
     77      27.6739      0.00000
     78      27.9398      0.00000
     79      28.4665      0.00000
     80      28.6886      0.00000
     81      28.9253      0.00000
     82      29.2800      0.00000
     83      29.4565      0.00000
     84      30.0602      0.00000
     85      30.4606      0.00000
     86      30.8747      0.00000
     87      31.0754      0.00000
     88      31.2600      0.00000
     89      32.2858      0.00000
     90      32.2882      0.00000
     91      32.6629      0.00000
     92      32.9596      0.00000
     93      33.1038      0.00000
     94      33.2806      0.00000
     95      33.6288      0.00000
     96      33.7338      0.00000
     97      34.5427      0.00000
     98      34.6046      0.00000
     99      34.7878      0.00000
    100      35.3875      0.00000
    101      35.5281      0.00000
    102      35.5642      0.00000
    103      36.0973      0.00000
    104      36.7464      0.00000
    105      36.8149      0.00000
    106      37.1783      0.00000
    107      37.4575      0.00000
    108      37.5163      0.00000
    109      37.8008      0.00000
    110      38.0542      0.00000
    111      38.2145      0.00000
    112      38.2895      0.00000
    113      38.7211      0.00000
    114      38.8262      0.00000
    115      39.2609      0.00000
    116      39.3207      0.00000
    117      39.6386      0.00000
    118      39.7276      0.00000
    119      40.1055      0.00000
    120      40.2030      0.00000
    121      40.8211      0.00000
    122      41.1273      0.00000
    123      41.2846      0.00000
    124      42.2423      0.00000
    125      42.3924      0.00000
    126      42.4505      0.00000
    127      42.6902      0.00000
    128      43.0733      0.00000
    129      43.1179      0.00000
    130      43.4937      0.00000
    131      43.5511      0.00000
    132      43.6527      0.00000
    133      44.1913      0.00000
    134      44.2404      0.00000
    135      44.6078      0.00000
    136      44.9934      0.00000
    137      45.0275      0.00000
    138      45.0949      0.00000
    139      45.2207      0.00000
    140      46.1329      0.00000
    141      46.1780      0.00000
    142      46.2533      0.00000
    143      46.4852      0.00000
    144      46.7403      0.00000

 k-point     5 :       0.5000    0.2500    0.0000
  band No.  band energies     occupation 
      1      -6.1380      1.00000
      2      -5.4670      1.00000
      3      -4.3362      1.00000
      4      -3.0825      1.00000
      5      -1.8400      1.00000
      6      -0.6441      1.00000
      7       0.1351      1.00000
      8       0.5619      1.00000
      9       1.4792      1.00000
     10       1.6657      1.00000
     11       2.3190      1.00000
     12       2.4724      1.00000
     13       3.0150      1.00000
     14       3.8876      1.00000
     15       5.0733      0.00000
     16       5.1820      0.00000
     17       7.2602      0.00000
     18       7.6681      0.00000
     19       7.7567      0.00000
     20       7.7933      0.00000
     21       9.0123      0.00000
     22       9.3239      0.00000
     23       9.3893      0.00000
     24       9.9094      0.00000
     25       9.9780      0.00000
     26      10.2415      0.00000
     27      10.4164      0.00000
     28      10.8287      0.00000
     29      11.7763      0.00000
     30      11.8739      0.00000
     31      12.4631      0.00000
     32      12.4687      0.00000
     33      13.1518      0.00000
     34      13.2304      0.00000
     35      13.5320      0.00000
     36      14.2457      0.00000
     37      15.6428      0.00000
     38      15.6631      0.00000
     39      15.8260      0.00000
     40      16.4065      0.00000
     41      16.7301      0.00000
     42      17.0371      0.00000
     43      17.4705      0.00000
     44      17.9005      0.00000
     45      18.7556      0.00000
     46      18.9312      0.00000
     47      19.0387      0.00000
     48      19.3537      0.00000
     49      19.5405      0.00000
     50      19.8590      0.00000
     51      20.0889      0.00000
     52      20.4255      0.00000
     53      20.4446      0.00000
     54      20.6192      0.00000
     55      21.0997      0.00000
     56      21.4256      0.00000
     57      22.2143      0.00000
     58      22.4497      0.00000
     59      22.6017      0.00000
     60      22.8893      0.00000
     61      22.9837      0.00000
     62      23.6883      0.00000
     63      23.8422      0.00000
     64      23.8559      0.00000
     65      24.8786      0.00000
     66      25.0134      0.00000
     67      25.0703      0.00000
     68      25.6713      0.00000
     69      25.8285      0.00000
     70      26.0554      0.00000
     71      26.1349      0.00000
     72      26.7402      0.00000
     73      27.2328      0.00000
     74      27.2494      0.00000
     75      27.4575      0.00000
     76      27.6971      0.00000
     77      28.0201      0.00000
     78      28.3654      0.00000
     79      28.9190      0.00000
     80      29.1328      0.00000
     81      29.1982      0.00000
     82      29.7236      0.00000
     83      29.7849      0.00000
     84      30.5263      0.00000
     85      30.8706      0.00000
     86      31.3345      0.00000
     87      31.6575      0.00000
     88      31.7076      0.00000
     89      32.3603      0.00000
     90      32.4683      0.00000
     91      32.4737      0.00000
     92      32.9880      0.00000
     93      33.0476      0.00000
     94      33.0743      0.00000
     95      33.5903      0.00000
     96      33.9800      0.00000
     97      34.0382      0.00000
     98      34.4190      0.00000
     99      34.7007      0.00000
    100      34.9618      0.00000
    101      35.0179      0.00000
    102      35.1523      0.00000
    103      35.6452      0.00000
    104      36.1646      0.00000
    105      36.3163      0.00000
    106      36.3642      0.00000
    107      36.5448      0.00000
    108      36.8846      0.00000
    109      37.3098      0.00000
    110      37.4437      0.00000
    111      37.8530      0.00000
    112      38.2726      0.00000
    113      38.4111      0.00000
    114      38.7081      0.00000
    115      39.0758      0.00000
    116      39.2795      0.00000
    117      39.3956      0.00000
    118      39.5142      0.00000
    119      40.3328      0.00000
    120      40.3695      0.00000
    121      40.4799      0.00000
    122      40.7957      0.00000
    123      40.9027      0.00000
    124      41.7238      0.00000
    125      41.7662      0.00000
    126      42.0764      0.00000
    127      42.0853      0.00000
    128      42.8756      0.00000
    129      42.9580      0.00000
    130      43.2171      0.00000
    131      43.3754      0.00000
    132      43.4407      0.00000
    133      44.0165      0.00000
    134      44.0343      0.00000
    135      44.4955      0.00000
    136      44.9047      0.00000
    137      45.2073      0.00000
    138      45.2390      0.00000
    139      45.5557      0.00000
    140      45.6932      0.00000
    141      45.8185      0.00000
    142      46.2048      0.00000
    143      46.3788      0.00000
    144      46.4970      0.00000

 k-point     6 :       0.5000    0.5000    0.0000
  band No.  band energies     occupation 
      1      -5.5235      1.00000
      2      -5.3209      1.00000
      3      -5.3209      1.00000
      4      -3.3448      1.00000
      5      -0.8328      1.00000
      6      -0.6512      1.00000
      7      -0.6512      1.00000
      8       0.4554      1.00000
      9       1.3236      1.00000
     10       1.3236      1.00000
     11       2.7246      1.00000
     12       2.8773      1.00000
     13       3.3005      1.00000
     14       3.5601      1.00000
     15       5.5131      0.00000
     16       5.5131      0.00000
     17       6.9499      0.00000
     18       6.9499      0.00000
     19       8.6196      0.00000
     20       8.8172      0.00000
     21       9.3289      0.00000
     22       9.5579      0.00000
     23       9.6639      0.00000
     24       9.6639      0.00000
     25       9.9895      0.00000
     26      10.2791      0.00000
     27      10.2950      0.00000
     28      10.2950      0.00000
     29      11.2195      0.00000
     30      11.9246      0.00000
     31      11.9246      0.00000
     32      13.0162      0.00000
     33      13.0162      0.00000
     34      13.1013      0.00000
     35      13.3069      0.00000
     36      13.3560      0.00000
     37      14.4845      0.00000
     38      15.6159      0.00000
     39      15.6159      0.00000
     40      15.7040      0.00000
     41      16.9450      0.00000
     42      17.7327      0.00000
     43      17.7496      0.00000
     44      17.7496      0.00000
     45      18.4004      0.00000
     46      18.4004      0.00000
     47      18.5723      0.00000
     48      19.2306      0.00000
     49      19.3570      0.00000
     50      19.3570      0.00000
     51      19.7555      0.00000
     52      20.9184      0.00000
     53      21.6316      0.00000
     54      21.6316      0.00000
     55      21.7424      0.00000
     56      21.8465      0.00000
     57      22.0690      0.00000
     58      22.2325      0.00000
     59      22.2325      0.00000
     60      22.3220      0.00000
     61      23.1949      0.00000
     62      23.5407      0.00000
     63      23.5407      0.00000
     64      23.6123      0.00000
     65      24.8881      0.00000
     66      25.4502      0.00000
     67      25.9773      0.00000
     68      25.9773      0.00000
     69      26.4041      0.00000
     70      26.4041      0.00000
     71      26.5782      0.00000
     72      27.1160      0.00000
     73      27.3730      0.00000
     74      27.3730      0.00000
     75      27.7911      0.00000
     76      28.0669      0.00000
     77      29.0838      0.00000
     78      29.5279      0.00000
     79      29.5279      0.00000
     80      29.7991      0.00000
     81      29.9228      0.00000
     82      29.9228      0.00000
     83      30.2707      0.00000
     84      30.6060      0.00000
     85      31.1731      0.00000
     86      31.2132      0.00000
     87      31.6134      0.00000
     88      31.6134      0.00000
     89      32.0660      0.00000
     90      32.0821      0.00000
     91      32.0821      0.00000
     92      32.0972      0.00000
     93      32.6944      0.00000
     94      32.7233      0.00000
     95      32.7233      0.00000
     96      32.9669      0.00000
     97      32.9669      0.00000
     98      33.7207      0.00000
     99      33.7415      0.00000
    100      33.7592      0.00000
    101      34.6748      0.00000
    102      34.7627      0.00000
    103      35.7375      0.00000
    104      35.9655      0.00000
    105      35.9655      0.00000
    106      36.0073      0.00000
    107      36.5792      0.00000
    108      36.5792      0.00000
    109      37.7265      0.00000
    110      37.7265      0.00000
    111      37.7295      0.00000
    112      38.8902      0.00000
    113      38.8902      0.00000
    114      39.1439      0.00000
    115      39.4710      0.00000
    116      40.2931      0.00000
    117      40.5495      0.00000
    118      40.7265      0.00000
    119      40.7800      0.00000
    120      40.7800      0.00000
    121      40.9642      0.00000
    122      41.3240      0.00000
    123      41.4303      0.00000
    124      41.8540      0.00000
    125      41.8540      0.00000
    126      41.8748      0.00000
    127      42.1692      0.00000
    128      42.5340      0.00000
    129      42.7780      0.00000
    130      42.7780      0.00000
    131      43.0798      0.00000
    132      43.0915      0.00000
    133      43.0915      0.00000
    134      43.3363      0.00000
    135      43.3363      0.00000
    136      43.5766      0.00000
    137      43.7770      0.00000
    138      44.1481      0.00000
    139      44.1481      0.00000
    140      44.2954      0.00000
    141      44.5953      0.00000
    142      44.5953      0.00000
    143      44.9291      0.00000
    144      45.6673      0.00000

 k-point     7 :       0.2500    0.2500    0.2500
  band No.  band energies     occupation 
      1      -6.3677      1.00000
      2      -4.6810      1.00000
      3      -4.6810      1.00000
      4      -3.3396      1.00000
      5      -1.5006      1.00000
      6      -1.5006      1.00000
      7       0.0101      1.00000
      8       1.1160      1.00000
      9       1.1160      1.00000
     10       2.3159      1.00000
     11       2.4221      1.00000
     12       2.8896      1.00000
     13       2.8896      1.00000
     14       3.8995      1.00000
     15       5.6821      0.00000
     16       5.6821      0.00000
     17       6.2101      0.00000
     18       6.5894      0.00000
     19       6.5894      0.00000
     20       8.8008      0.00000
     21       8.8008      0.00000
     22       8.9242      0.00000
     23       9.8273      0.00000
     24       9.9435      0.00000
     25       9.9435      0.00000
     26      10.3316      0.00000
     27      10.3316      0.00000
     28      10.3584      0.00000
     29      11.8563      0.00000
     30      11.8563      0.00000
     31      12.7561      0.00000
     32      13.3301      0.00000
     33      13.3301      0.00000
     34      14.0560      0.00000
     35      14.2511      0.00000
     36      15.2167      0.00000
     37      15.4732      0.00000
     38      15.4732      0.00000
     39      15.7942      0.00000
     40      15.7942      0.00000
     41      16.0250      0.00000
     42      17.3188      0.00000
     43      17.3251      0.00000
     44      17.5479      0.00000
     45      17.5479      0.00000
     46      17.9795      0.00000
     47      19.0463      0.00000
     48      19.0463      0.00000
     49      19.4739      0.00000
     50      19.4739      0.00000
     51      19.6855      0.00000
[...]
     37      14.7428      0.00000
     38      15.2100      0.00000
     39      15.2100      0.00000
     40      15.3132      0.00000
     41      15.9756      0.00000
     42      16.2751      0.00000
     43      16.2751      0.00000
     44      17.1665      0.00000
     45      18.3798      0.00000
     46      18.3798      0.00000
     47      18.6372      0.00000
     48      18.7521      0.00000
     49      19.0665      0.00000
     50      19.2176      0.00000
     51      19.2176      0.00000
     52      19.6122      0.00000
     53      20.6357      0.00000
     54      21.7551      0.00000
     55      21.7551      0.00000
     56      21.9814      0.00000
     57      22.4592      0.00000
     58      22.7183      0.00000
     59      22.7183      0.00000
     60      22.8308      0.00000
     61      24.0121      0.00000
     62      24.0364      0.00000
     63      24.0364      0.00000
     64      25.3147      0.00000
     65      25.6918      0.00000
     66      25.7855      0.00000
     67      25.9860      0.00000
     68      25.9860      0.00000
     69      26.8917      0.00000
     70      26.8917      0.00000
     71      27.1927      0.00000
     72      27.1941      0.00000
     73      27.6076      0.00000
     74      27.7939      0.00000
     75      27.7939      0.00000
     76      28.6748      0.00000
     77      28.9536      0.00000
     78      28.9536      0.00000
     79      29.1826      0.00000
     80      29.2271      0.00000
     81      29.8927      0.00000
     82      30.3757      0.00000
     83      30.3757      0.00000
     84      30.5657      0.00000
     85      30.8481      0.00000
     86      30.8481      0.00000
     87      30.9785      0.00000
     88      31.3083      0.00000
     89      32.2611      0.00000
     90      32.2611      0.00000
     91      32.3426      0.00000
     92      32.4583      0.00000
     93      33.1853      0.00000
     94      33.4029      0.00000
     95      33.4098      0.00000
     96      33.4098      0.00000
     97      33.8609      0.00000
     98      33.8609      0.00000
     99      33.8700      0.00000
    100      34.3020      0.00000
    101      34.8046      0.00000
    102      35.3825      0.00000
    103      35.3825      0.00000
    104      35.5350      0.00000
    105      36.2282      0.00000
    106      36.2964      0.00000
    107      36.2964      0.00000
    108      36.4801      0.00000
    109      37.0781      0.00000
    110      37.4841      0.00000
    111      37.4841      0.00000
    112      37.5546      0.00000
    113      37.7374      0.00000
    114      38.6740      0.00000
    115      38.6740      0.00000
    116      38.6906      0.00000
    117      39.3591      0.00000
    118      39.3591      0.00000
    119      39.3973      0.00000
    120      39.4338      0.00000
    121      39.8952      0.00000
    122      39.8952      0.00000
    123      40.2080      0.00000
    124      40.8693      0.00000
    125      41.0189      0.00000
    126      41.5691      0.00000
    127      41.5691      0.00000
    128      41.6976      0.00000
    129      42.3502      0.00000
    130      42.8555      0.00000
    131      43.3857      0.00000
    132      43.4042      0.00000
    133      43.4042      0.00000
    134      43.6521      0.00000
    135      44.2825      0.00000
    136      44.2825      0.00000
    137      44.5852      0.00000
    138      45.3692      0.00000
    139      45.3692      0.00000
    140      45.5562      0.00000
    141      45.7420      0.00000
    142      45.7939      0.00000
    143      45.7940      0.00000
    144      46.3032      0.00000

 k-point    10 :       0.5000    0.5000    0.5000
  band No.  band energies     occupation 
      1      -5.1219      1.00000
      2      -5.1219      1.00000
      3      -5.1219      1.00000
      4      -3.7825      1.00000
      5      -1.8535      1.00000
      6      -1.8535      1.00000
      7      -1.8535      1.00000
      8       1.0780      1.00000
      9       3.0365      1.00000
     10       3.0365      1.00000
     11       3.3040      1.00000
     12       3.3040      1.00000
     13       3.3040      1.00000
     14       5.9799      0.00000
     15       5.9799      0.00000
     16       5.9799      0.00000
     17       6.2648      0.00000
     18       6.2648      0.00000
     19       6.2648      0.00000
     20       7.8149      0.00000
     21       7.8149      0.00000
     22       7.8149      0.00000
     23       9.1480      0.00000
     24       9.1480      0.00000
     25       9.9873      0.00000
     26       9.9873      0.00000
     27       9.9873      0.00000
     28      10.0919      0.00000
     29      12.3673      0.00000
     30      13.1538      0.00000
     31      13.1538      0.00000
     32      13.1538      0.00000
     33      15.0612      0.00000
     34      15.0612      0.00000
     35      15.0612      0.00000
     36      15.2379      0.00000
     37      15.2379      0.00000
     38      15.6290      0.00000
     39      15.6290      0.00000
     40      15.6290      0.00000
     41      16.3374      0.00000
     42      16.6343      0.00000
     43      16.6343      0.00000
     44      16.6343      0.00000
     45      16.7328      0.00000
     46      16.7328      0.00000
     47      16.7328      0.00000
     48      17.8153      0.00000
     49      17.8153      0.00000
     50      17.8153      0.00000
     51      18.3787      0.00000
     52      18.3787      0.00000
     53      19.6625      0.00000
     54      21.1149      0.00000
     55      21.1149      0.00000
     56      21.1149      0.00000
     57      24.5736      0.00000
     58      25.1708      0.00000
     59      25.1708      0.00000
     60      25.1708      0.00000
     61      25.4425      0.00000
     62      25.4425      0.00000
     63      25.4425      0.00000
     64      25.9289      0.00000
     65      25.9984      0.00000
     66      25.9984      0.00000
     67      26.2510      0.00000
     68      26.2510      0.00000
     69      26.2510      0.00000
     70      26.6310      0.00000
     71      26.6310      0.00000
     72      26.6310      0.00000
     73      26.9321      0.00000
     74      26.9321      0.00000
     75      26.9321      0.00000
     76      28.3491      0.00000
     77      28.3491      0.00000
     78      28.3491      0.00000
     79      30.2458      0.00000
     80      30.2458      0.00000
     81      30.2599      0.00000
     82      30.5268      0.00000
     83      30.5268      0.00000
     84      30.5268      0.00000
     85      31.5881      0.00000
     86      31.5881      0.00000
     87      31.5881      0.00000
     88      31.7169      0.00000
     89      31.7169      0.00000
     90      32.2520      0.00000
     91      32.2520      0.00000
     92      32.2520      0.00000
     93      32.7658      0.00000
     94      32.7658      0.00000
     95      32.7658      0.00000
     96      33.1834      0.00000
     97      33.1834      0.00000
     98      33.1834      0.00000
     99      33.9291      0.00000
    100      33.9291      0.00000
    101      34.2025      0.00000
    102      35.2998      0.00000
    103      36.6173      0.00000
    104      36.6173      0.00000
    105      36.6173      0.00000
    106      37.1231      0.00000
    107      37.1231      0.00000
    108      37.1231      0.00000
    109      37.2510      0.00000
    110      37.2510      0.00000
    111      37.2510      0.00000
    112      37.5921      0.00000
    113      37.5921      0.00000
    114      37.9783      0.00000
    115      37.9783      0.00000
    116      37.9783      0.00000
    117      38.3232      0.00000
    118      38.3232      0.00000
    119      38.3232      0.00000
    120      38.7770      0.00000
    121      39.4173      0.00000
    122      39.4173      0.00000
    123      39.4173      0.00000
    124      41.4433      0.00000
    125      41.4433      0.00000
    126      41.4527      0.00000
    127      41.7431      0.00000
    128      41.7431      0.00000
    129      41.7431      0.00000
    130      41.8888      0.00000
    131      41.9787      0.00000
    132      41.9787      0.00000
    133      41.9787      0.00000
    134      42.5257      0.00000
    135      42.5257      0.00000
    136      42.5257      0.00000
    137      45.3358      0.00000
    138      45.3358      0.00000
    139      46.0256      0.00000
    140      46.0256      0.00000
    141      46.0256      0.00000
    142      47.5089      0.00000
    143      47.6081      0.00000
    144      47.6084      0.00000


--------------------------------------------------------------------------------------------------------


 soft charge-density along one line, spin component           1
         0         1         2         3         4         5         6         7         8         9
 total charge-density along one line
 
 soft charge-density along one line, spin component           2
         0         1         2         3         4         5         6         7         8         9
 total charge-density along one line
 
 pseudopotential strength for first ion, spin component:           1
 18.588  25.934  -0.003   0.003   0.003  -0.005   0.005   0.005
 25.934  36.187  -0.004   0.004   0.004  -0.007   0.007   0.007
 -0.003  -0.004   4.196  -0.002  -0.002   7.820  -0.003  -0.003
  0.003   0.004  -0.002   4.196   0.002  -0.003   7.820   0.003
  0.003   0.004  -0.002   0.002   4.196  -0.003   0.003   7.820
 -0.005  -0.007   7.820  -0.003  -0.003  14.582  -0.006  -0.006
  0.005   0.007  -0.003   7.820   0.003  -0.006  14.582   0.006
  0.005   0.007  -0.003   0.003   7.820  -0.006   0.006  14.582
 pseudopotential strength for first ion, spin component:           2
 18.588  25.934  -0.003   0.003   0.003  -0.005   0.005   0.005
 25.934  36.187  -0.004   0.004   0.004  -0.007   0.007   0.007
 -0.003  -0.004   4.196  -0.002  -0.002   7.820  -0.003  -0.003
  0.003   0.004  -0.002   4.196   0.002  -0.003   7.820   0.003
  0.003   0.004  -0.002   0.002   4.196  -0.003   0.003   7.820
 -0.005  -0.007   7.820  -0.003  -0.003  14.582  -0.006  -0.006
  0.005   0.007  -0.003   7.820   0.003  -0.006  14.582   0.006
  0.005   0.007  -0.003   0.003   7.820  -0.006   0.006  14.582
 total augmentation occupancy for first ion, spin component:           1
  4.865  -1.697   0.479  -0.479  -0.479  -0.156   0.156   0.156
 -1.697   0.767  -0.295   0.295   0.295   0.076  -0.076  -0.076
  0.479  -0.295   2.276   0.481   0.481  -0.476  -0.119  -0.119
 -0.479   0.295   0.481   2.276  -0.481  -0.119  -0.476   0.119
 -0.479   0.295   0.481  -0.481   2.276  -0.119   0.119  -0.476
 -0.156   0.076  -0.476  -0.119  -0.119   0.108   0.029   0.029
  0.156  -0.076  -0.119  -0.476   0.119   0.029   0.108  -0.029
  0.156  -0.076  -0.119   0.119  -0.476   0.029  -0.029   0.108
 total augmentation occupancy for first ion, spin component:           2
 -0.000   0.000  -0.000   0.000   0.000   0.000  -0.000  -0.000
  0.000  -0.000   0.000  -0.000  -0.000  -0.000   0.000   0.000
 -0.000   0.000  -0.000   0.000   0.000   0.000  -0.000  -0.000
  0.000  -0.000   0.000  -0.000  -0.000  -0.000   0.000   0.000
  0.000  -0.000   0.000  -0.000  -0.000  -0.000   0.000   0.000
  0.000  -0.000   0.000  -0.000  -0.000  -0.000   0.000   0.000
 -0.000   0.000  -0.000   0.000   0.000   0.000  -0.000  -0.000
 -0.000   0.000  -0.000   0.000   0.000   0.000  -0.000  -0.000


------------------------ aborting loop because EDIFF is reached ----------------------------------------





 total charge

# of ion       s       p       d       tot
------------------------------------------
    1        0.801   0.790   0.000   1.591
    2        0.752   0.909   0.000   1.661
    3        0.801   0.790   0.000   1.591
    4        0.752   0.909   0.000   1.661
    5        0.801   0.790   0.000   1.591
    6        0.752   0.909   0.000   1.661
    7        0.801   0.790   0.000   1.591
--------------------------------------------------
tot          5.459   5.889   0.000  11.348



 magnetization (x)

# of ion       s       p       d       tot
------------------------------------------
    1       -0.000  -0.000   0.000  -0.000
    2       -0.000  -0.000   0.000  -0.000
    3       -0.000  -0.000   0.000  -0.000
    4       -0.000  -0.000   0.000  -0.000
    5       -0.000  -0.000   0.000  -0.000
    6       -0.000  -0.000   0.000  -0.000
    7       -0.000  -0.000   0.000  -0.000
--------------------------------------------------
tot         -0.000  -0.000   0.000  -0.000
 
    CHARGE:  cpu time      0.0369: real time      0.0369
    FORLOC:  cpu time      0.0002: real time      0.0002
    FORNL :  cpu time      0.0347: real time      0.0347
    STRESS:  cpu time      0.2410: real time      0.2411
    FORCOR:  cpu time      0.0138: real time      0.0138
    FORHAR:  cpu time      0.0018: real time      0.0019
    MIXING:  cpu time      0.0004: real time      0.0004
    OFIELD:  cpu time      0.0001: real time      0.0001

  FORCE on cell =-STRESS in cart. coord.  units (eV):
  Direction    XX          YY          ZZ          XY          YZ          ZX
  --------------------------------------------------------------------------------------
  Alpha Z    10.25816    10.25816    10.25816
  Ewald    -244.91512  -244.91512  -244.91512     0.00000     0.00000     0.00000
  Hartree    25.72096    25.72096    25.72096    -0.00000    -0.00000    -0.00000
  E(xc)     -84.45466   -84.45466   -84.45466    -0.00000     0.00000     0.00000
  Local    -126.97651  -126.97651  -126.97651    -0.00000    -0.00000     0.00000
  n-local   267.97301   268.81195   266.77223    -0.34321    -0.81037    -0.12778
  augment   -41.06700   -41.06700   -41.06700    -0.00000     0.00000    -0.00000
  Kinetic   176.34664   183.98664   189.79668     0.30586     0.18575     0.38972
  Fock        0.00000     0.00000     0.00000     0.00000     0.00000     0.00000
  -------------------------------------------------------------------------------------
  Total     -10.20513   -10.20513   -10.20513     0.00000    -0.00000     0.00000
  in kB    -101.68288  -101.68288  -101.68288     0.00000    -0.00000     0.00000
  external pressure =     -101.68 kB  Pullay stress =        0.00 kB


 VOLUME and BASIS-vectors are now :
 -----------------------------------------------------------------------------
  energy-cutoff  :      500.00
  volume of cell :      160.80
      direct lattice vectors                 reciprocal lattice vectors
     5.437848350  0.000000000  0.000000000     0.183896265  0.000000000  0.000000000
     0.000000000  5.437848350  0.000000000     0.000000000  0.183896265  0.000000000
     0.000000000  0.000000000  5.437848350     0.000000000  0.000000000  0.183896265

  length of vectors
     5.437848350  5.437848350  5.437848350     0.183896265  0.183896265  0.183896265


 FORCES acting on ions
    electron-ion (+dipol)            ewald-force                    non-local-force                 convergence-correction
 -----------------------------------------------------------------------------------------------
   -.215E+02 0.215E+02 -.215E+02   0.199E+02 -.199E+02 0.199E+02   0.167E+01 -.167E+01 0.167E+01   -.102E-03 0.102E-03 -.102E-03
   -.157E-13 -.189E-15 0.116E-13   -.107E-13 -.107E-13 -.355E-14   0.283E-16 -.427E-17 0.518E-17   -.176E-14 -.144E-14 -.186E-14
   -.215E+02 -.215E+02 0.215E+02   0.199E+02 0.199E+02 -.199E+02   0.167E+01 0.167E+01 -.167E+01   -.102E-03 -.102E-03 0.102E-03
   -.122E-12 0.816E-14 0.228E-14   0.355E-14 -.711E-14 0.711E-14   -.421E-16 -.132E-16 0.125E-17   -.188E-14 -.330E-14 -.170E-14
   0.215E+02 0.215E+02 0.215E+02   -.199E+02 -.199E+02 -.199E+02   -.167E+01 -.167E+01 -.167E+01   0.102E-03 0.102E-03 0.102E-03
   0.327E-14 -.241E-14 -.148E-12   0.000E+00 -.711E-14 -.142E-13   0.292E-17 -.274E-16 -.812E-17   -.104E-14 0.328E-15 -.103E-14
   0.215E+02 -.215E+02 -.215E+02   -.199E+02 0.199E+02 0.199E+02   -.167E+01 0.167E+01 0.167E+01   0.102E-03 -.102E-03 -.102E-03
 -----------------------------------------------------------------------------------------------
   0.182E-08 0.182E-08 0.140E-08   0.000E+00 0.000E+00 0.000E+00   0.444E-15 -.222E-15 -.222E-15   0.694E-15 -.369E-14 -.693E-14
 
 
 POSITION                                       TOTAL-FORCE (eV/Angst)
 -----------------------------------------------------------------------------------
      1.31567      4.12218      1.31567         0.066392     -0.066392      0.066392
      0.00000      0.00000      2.71892         0.000000      0.000000      0.000000
      1.31567      1.31567      4.12218         0.066392      0.066392     -0.066392
      0.00000      2.71892      0.00000         0.000000      0.000000      0.000000
      4.12218      4.12218      4.12218        -0.066392     -0.066392     -0.066392
      2.71892      0.00000      0.00000         0.000000      0.000000      0.000000
      4.12218      1.31567      1.31567        -0.066392      0.066392      0.066392
 -----------------------------------------------------------------------------------
    total drift:                                0.000000      0.000000      0.000000


--------------------------------------------------------------------------------------------------------



  FREE ENERGIE OF THE ION-ELECTRON SYSTEM (eV)
  ---------------------------------------------------
  free  energy   TOTEN  =       -41.57078364 eV

  energy  without entropy=      -41.56549437  energy(sigma->0) =      -41.56813901
 


--------------------------------------------------------------------------------------------------------


    POTLOK:  cpu time      0.2273: real time      0.2273


--------------------------------------------------------------------------------------------------------


 writing wavefunctions
     LOOP+:  cpu time     67.2650: real time     67.5164
    4ORBIT:  cpu time      0.0000: real time      0.0000



 total charge

# of ion       s       p       d       tot
------------------------------------------
    1        0.801   0.790   0.000   1.591
    2        0.752   0.909   0.000   1.661
    3        0.801   0.790   0.000   1.591
    4        0.752   0.909   0.000   1.661
    5        0.801   0.790   0.000   1.591
    6        0.752   0.909   0.000   1.661
    7        0.801   0.790   0.000   1.591
--------------------------------------------------
tot          5.459   5.889   0.000  11.348



 magnetization (x)

# of ion       s       p       d       tot
------------------------------------------
    1       -0.000  -0.000   0.000  -0.000
    2       -0.000  -0.000   0.000  -0.000
    3       -0.000  -0.000   0.000  -0.000
    4       -0.000  -0.000   0.000  -0.000
    5       -0.000  -0.000   0.000  -0.000
    6       -0.000  -0.000   0.000  -0.000
    7       -0.000  -0.000   0.000  -0.000
--------------------------------------------------
tot         -0.000  -0.000   0.000  -0.000
 

 total amount of memory used by VASP MPI-rank0    40713. kBytes
=======================================================================

   base      :      30000. kBytes
   nonl-proj :       3140. kBytes
   fftplans  :        508. kBytes
   grid      :       5640. kBytes
   one-center:         43. kBytes
   wavefun   :       1382. kBytes
 
  
  
 General timing and accounting informations for this job:
 ========================================================
  
                  Total CPU time used (sec):       73.908
                            User time (sec):       70.712
                          System time (sec):        3.197
                         Elapsed time (sec):       76.940
  
                   Maximum memory used (kb):      154900.
                   Average memory used (kb):          N/A
  
                          Minor page faults:       133522
                          Major page faults:            0
                 Voluntary context switches:         3926
