<?xml version="1.0" encoding="ISO-8859-1"?>
<modeling>
 <generator>
  <i name="program" type="string">vasp </i>
  <i name="version" type="string">6.3.0  </i>
  <i name="subversion" type="string">20Jan22 (build Feb 02 2022 18:12:33) complex                          parallel </i>
  <i name="platform" type="string">LinuxIFC </i>
  <i name="date" type="string">2022 04 15 </i>
  <i name="time" type="string">08:46:54 </i>
 </generator>
 <incar>
  <i type="string" name="PREC">Accurate</i>
  <i type="string" name="ALGO">Fast</i>
  <i type="int" name="ISPIN">     2</i>
  <i type="int" name="NELM">   200</i>
  <i type="int" name="NELMIN">     6</i>
  <i name="EDIFF">      0.00001000</i>
  <i type="int" name="NSW">     0</i>
  <i name="ENCUT">    500.00000000</i>
  <i name="ENAUG">   1360.00000000</i>
  <v name="MAGMOM">      0.00000000      0.00000000      0.00000000      0.00000000      0.00000000      0.00000000      0.00000000</v>
  <i name="NELECT">     27.00000000</i>
  <i type="logical" name="LREAL"> F  </i>
  <i type="int" name="ISMEAR">     0</i>
  <i name="SIGMA">      0.05000000</i>
  <i type="logical" name="LWAVE"> T  </i>
  <i type="logical" name="LCHARG"> T  </i>
  <i type="logical" name="LVTOT"> T  </i>
  <i type="int" name="LORBIT">    11</i>
  <i type="logical" name="LELF"> F  </i>
  <i type="logical" name="LASPH"> T  </i>
  <i type="logical" name="LAECHG"> F  </i>
  <i type="string" name="GGA">Ps</i>
  <i type="logical" name="LMIXTAU"> T  </i>
 </incar>
 <primitive_cell>
  <structure name="primitive_cell" >
   <crystal>
    <varray name="basis" >
     <v>       5.43784835       0.00000000       0.00000000 </v>
     <v>       0.00000000       5.43784835       0.00000000 </v>
     <v>       0.00000000       0.00000000       5.43784835 </v>
    </varray>
    <i name="volume">    160.79823434 </i>
    <varray name="rec_basis" >
     <v>       0.18389626       0.00000000       0.00000000 </v>
     <v>       0.00000000       0.18389626       0.00000000 </v>
     <v>       0.00000000       0.00000000       0.18389626 </v>
    </varray>
   </crystal>
   <varray name="positions" >
    <v>       0.24194722       0.75805278       0.24194722 </v>
    <v>       0.00000000       0.00000000       0.50000000 </v>
    <v>       0.24194722       0.24194722       0.75805278 </v>
    <v>       0.00000000       0.50000000       0.00000000 </v>
    <v>       0.75805278       0.75805278       0.75805278 </v>
    <v>       0.50000000       0.00000000       0.00000000 </v>
    <v>       0.75805278       0.24194722       0.24194722 </v>
   </varray>
  </structure>
  <varray name="primitive_index" >
   <v type="int" >        1 </v>
   <v type="int" >        2 </v>
   <v type="int" >        3 </v>
   <v type="int" >        4 </v>
   <v type="int" >        5 </v>
   <v type="int" >        6 </v>
   <v type="int" >        7 </v>
  </varray>
 </primitive_cell>
 <kpoints>
  <generation param="Gamma">
   <v type="int" name="divisions">       4        4        4 </v>
   <v name="usershift">      0.00000000       0.00000000       0.00000000 </v>
   <v name="genvec1">      0.25000000       0.00000000       0.00000000 </v>
   <v name="genvec2">      0.00000000       0.25000000       0.00000000 </v>
   <v name="genvec3">      0.00000000       0.00000000       0.25000000 </v>
   <v name="shift">      0.00000000       0.00000000       0.00000000 </v>
  </generation>
  <varray name="kpointlist" >
   <v>       0.00000000       0.00000000       0.00000000 </v>
   <v>       0.25000000       0.00000000       0.00000000 </v>
   <v>       0.50000000       0.00000000       0.00000000 </v>
   <v>       0.25000000       0.25000000       0.00000000 </v>
   <v>       0.50000000       0.25000000       0.00000000 </v>
   <v>       0.50000000       0.50000000       0.00000000 </v>
   <v>       0.25000000       0.25000000       0.25000000 </v>
   <v>       0.50000000       0.25000000       0.25000000 </v>
   <v>       0.50000000       0.50000000       0.25000000 </v>
   <v>       0.50000000       0.50000000       0.50000000 </v>
  </varray>
  <varray name="weights" >
   <v>       0.01562500 </v>
   <v>       0.09375000 </v>
   <v>       0.04687500 </v>
   <v>       0.18750000 </v>
   <v>       0.18750000 </v>
   <v>       0.04687500 </v>
   <v>       0.12500000 </v>
   <v>       0.18750000 </v>
   <v>       0.09375000 </v>
   <v>       0.01562500 </v>
  </varray>
 </kpoints>
 <parameters>
  <separator name="general" >
   <i type="string" name="SYSTEM">unknown system</i>
   <i type="logical" name="LCOMPAT"> F  </i>
  </separator>
  <separator name="electronic" >
   <i type="string" name="PREC">accura</i>
   <i name="ENMAX">    500.00000000</i>
   <i name="ENAUG">   1360.00000000</i>
   <i name="EDIFF">      0.00001000</i>
   <i type="int" name="IALGO">    68</i>
   <i type="int" name="IWAVPR">    10</i>
   <i type="int" name="NBANDS">   144</i>
   <i type="int" name="NBANDSLOW">    -1</i>
   <i type="int" name="NBANDSHIGH">    -1</i>
   <i name="NELECT">     27.00000000</i>
   <i type="int" name="TURBO">     0</i>
   <i type="int" name="IRESTART">     0</i>
   <i type="int" name="NREBOOT">     0</i>
   <i type="int" name="NMIN">     0</i>
   <i name="EREF">      0.00000000</i>
   <separator name="electronic smearing" >
    <i type="int" name="ISMEAR">     0</i>
    <i name="SIGMA">      0.05000000</i>
    <i name="KSPACING">      0.50000000</i>
    <i type="logical" name="KGAMMA"> T  </i>
    <i type="logical" name="KBLOWUP"> T  </i>
   </separator>
   <separator name="electronic projectors" >
    <i type="logical" name="LREAL"> F  </i>
    <v name="ROPT">      0.00000000</v>
    <i type="int" name="LMAXPAW">  -100</i>
    <i type="int" name="LMAXMIX">     2</i>
    <i type="logical" name="NLSPLINE"> F  </i>
   </separator>
   <separator name="electronic startup" >
    <i type="int" name="ISTART">     0</i>
    <i type="int" name="ICHARG">     2</i>
    <i type="int" name="INIWAV">     1</i>
   </separator>
   <separator name="electronic spin" >
    <i type="int" name="ISPIN">     2</i>
    <i type="logical" name="LNONCOLLINEAR"> F  </i>
    <v name="MAGMOM">      0.00000000      0.00000000      0.00000000      0.00000000      0.00000000      0.00000000      0.00000000</v>
    <i name="NUPDOWN">     -1.00000000</i>
    <i type="logical" name="LSORBIT"> F  </i>
    <v name="SAXIS">      0.00000000      0.00000000      1.00000000</v>
    <i type="logical" name="LSPIRAL"> F  </i>
    <v name="QSPIRAL">      0.00000000      0.00000000      0.00000000</v>
    <i type="logical" name="LZEROZ"> F  </i>
   </separator>
   <separator name="electronic exchange-correlation" >
    <i type="logical" name="LASPH"> T  </i>
    <i type="logical" name="LMETAGGA"> F  </i>
   </separator>
   <separator name="electronic convergence" >
    <i type="int" name="NELM">   200</i>
    <i type="int" name="NELMDL">    -5</i>
    <i type="int" name="NELMIN">     6</i>
    <i name="ENINI">    500.00000000</i>
    <separator name="electronic convergence detail" >
     <i type="logical" name="LDIAG"> T  </i>
     <i type="logical" name="LSUBROT"> F  </i>
     <i name="WEIMIN">      0.00000000</i>
     <i name="EBREAK">      0.00000002</i>
     <i name="DEPER">      0.30000000</i>
     <i type="int" name="NRMM">     4</i>
     <i name="TIME">      0.40000000</i>
    </separator>
   </separator>
   <separator name="electronic mixer" >
    <i name="AMIX">      0.40000000</i>
    <i name="BMIX">      1.00000000</i>
    <i name="AMIN">      0.10000000</i>
    <i name="AMIX_MAG">      1.60000000</i>
    <i name="BMIX_MAG">      1.00000000</i>
    <separator name="electronic mixer details" >
     <i type="int" name="IMIX">     4</i>
     <i type="logical" name="MIXFIRST"> F  </i>
     <i type="int" name="MAXMIX">   -45</i>
     <i name="WC">    100.00000000</i>
     <i type="int" name="INIMIX">     1</i>
     <i type="int" name="MIXPRE">     1</i>
     <i type="int" name="MREMOVE">     5</i>
    </separator>
   </separator>
   <separator name="electronic dipolcorrection" >
    <i type="logical" name="LDIPOL"> F  </i>
    <i type="logical" name="LMONO"> F  </i>
    <i type="int" name="IDIPOL">     0</i>
    <i name="EPSILON">      1.00000000</i>
    <v name="DIPOL">   -100.00000000   -100.00000000   -100.00000000</v>
    <i name="EFIELD">      0.00000000</i>
   </separator>
  </separator>
  <separator name="grids" >
   <i type="int" name="NGX">    40</i>
   <i type="int" name="NGY">    40</i>
   <i type="int" name="NGZ">    40</i>
   <i type="int" name="NGXF">    80</i>
   <i type="int" name="NGYF">    80</i>
   <i type="int" name="NGZF">    80</i>
   <i type="logical" name="ADDGRID"> F  </i>
  </separator>
  <separator name="ionic" >
   <i type="int" name="NSW">     0</i>
   <i type="int" name="IBRION">    -1</i>
   <i type="int" name="MDALGO">     0</i>
   <i type="int" name="ISIF">     2</i>
   <i name="PSTRESS">      0.00000000</i>
   <i name="EDIFFG">      0.00010000</i>
   <i type="int" name="NFREE">     0</i>
   <i name="POTIM">      0.50000000</i>
   <i name="SMASS">     -3.00000000</i>
   <i name="SCALEE">      1.00000000</i>
  </separator>
  <separator name="ionic md" >
   <i name="TEBEG">      0.00010000</i>
   <i name="TEEND">      0.00010000</i>
   <i type="int" name="NBLOCK">     1</i>
   <i type="int" name="KBLOCK">     1</i>
   <i type="int" name="NPACO">   256</i>
   <i name="APACO">     10.00000000</i>
  </separator>
  <separator name="symmetry" >
   <i type="int" name="ISYM">     2</i>
   <i name="SYMPREC">      0.00001000</i>
  </separator>
  <separator name="dos" >
   <i type="int" name="LORBIT">    11</i>
   <v name="RWIGS">     -1.00000000</v>
   <i type="int" name="NEDOS">   301</i>
   <i name="EMIN">     10.00000000</i>
   <i name="EMAX">    -10.00000000</i>
   <i name="EFERMI">      0.00000000</i>
  </separator>
  <separator name="writing" >
   <i type="int" name="NWRITE">     2</i>
   <i type="logical" name="LWAVE"> T  </i>
   <i type="logical" name="LDOWNSAMPLE"> F  </i>
   <i type="logical" name="LCHARG"> T  </i>
   <i type="logical" name="LPARD"> F  </i>
   <i type="logical" name="LVTOT"> T  </i>
   <i type="logical" name="LVHAR"> F  </i>
   <i type="logical" name="LELF"> F  </i>
   <i type="logical" name="LOPTICS"> F  </i>
   <v name="STM">      0.00000000      0.00000000      0.00000000      0.00000000      0.00000000      0.00000000      0.00000000</v>
  </separator>
  <separator name="performance" >
   <i type="int" name="NPAR">   144</i>
   <i type="int" name="NSIM">     4</i>
   <i type="int" name="NBLK">    -1</i>
   <i type="logical" name="LPLANE"> T  </i>
   <i type="logical" name="LSCALAPACK"> T  </i>
   <i type="logical" name="LSCAAWARE"> T  </i>
   <i type="logical" name="LSCALU"> F  </i>
   <i type="logical" name="LASYNC"> F  </i>
   <i type="logical" name="LORBITALREAL"> F  </i>
  </separator>
  <separator name="miscellaneous" >
   <i type="int" name="IDIOT">     3</i>
   <i type="int" name="PHON_NSTRUCT">    -1</i>
   <i type="logical" name="LMUSIC"> F  </i>
   <v name="POMASS">     28.08500000</v>
   <v name="DARWINR">      0.00000000</v>
   <v name="DARWINV">      1.00000000</v>
   <i type="logical" name="LCORR"> T  </i>
  </separator>
  <i type="logical" name="GGA_COMPAT"> T  </i>
  <i type="logical" name="LBERRY"> F  </i>
  <i type="int" name="ICORELEVEL">     0</i>
  <i type="logical" name="LDAU"> F  </i>
  <i type="int" name="I_CONSTRAINED_M">     0</i>
  <separator name="electronic exchange-correlation" >
   <i type="string" name="GGA">PS</i>
   <i type="int" name="VOSKOWN">     0</i>
   <i type="logical" name="LHFCALC"> F  </i>
   <i type="string" name="PRECFOCK"></i>
   <i type="logical" name="LSYMGRAD"> F  </i>
   <i type="logical" name="LHFONE"> F  </i>
   <i type="logical" name="LRHFCALC"> F  </i>
   <i type="logical" name="LTHOMAS"> F  </i>
   <i type="logical" name="LMODELHF"> F  </i>
   <i type="logical" name="LFOCKACE"> F  </i>
   <i name="ENCUT4O">     -1.00000000</i>
   <i type="int" name="EXXOEP">     0</i>
   <i type="int" name="FOURORBIT">     0</i>
   <i name="AEXX">      0.00000000</i>
   <i name="HFALPHA">      0.00000000</i>
   <i name="MCALPHA">      0.00000000</i>
   <i name="ALDAX">      1.00000000</i>
   <i name="AGGAX">      1.00000000</i>
   <i name="ALDAC">      1.00000000</i>
   <i name="AGGAC">      1.00000000</i>
   <i type="int" name="NKREDX">     1</i>
   <i type="int" name="NKREDY">     1</i>
   <i type="int" name="NKREDZ">     1</i>
   <i type="logical" name="SHIFTRED"> F  </i>
   <i type="logical" name="ODDONLY"> F  </i>
   <i type="logical" name="EVENONLY"> F  </i>
   <i type="int" name="LMAXFOCK">     0</i>
   <i type="int" name="NMAXFOCKAE">     0</i>
   <i type="logical" name="LFOCKAEDFT"> F  </i>
   <i name="HFSCREEN">      0.00000000</i>
   <i name="HFSCREENC">      0.00000000</i>
   <i type="int" name="NBANDSGWLOW">     0</i>
  </separator>
  <separator name="vdW DFT" >
   <i type="logical" name="LUSE_VDW"> F  </i>
   <i name="Zab_VDW">     -0.84910000</i>
   <i name="PARAM1">      0.12340000</i>
   <i name="PARAM2">      1.00000000</i>
   <i name="PARAM3">      0.00000000</i>
  </separator>
  <separator name="model GW" >
   <i type="int" name="MODEL_GW">     0</i>
   <i name="MODEL_EPS0">     13.78270580</i>
   <i name="MODEL_ALPHA">      1.00000000</i>
  </separator>
  <separator name="linear response parameters" >
   <i type="logical" name="LEPSILON"> F  </i>
   <i type="logical" name="LRPA"> F  </i>
   <i type="logical" name="LNABLA"> F  </i>
   <i type="logical" name="LVEL"> F  </i>
   <i name="CSHIFT">      0.10000000</i>
   <i name="OMEGAMAX">     -1.00000000</i>
   <i name="DEG_THRESHOLD">      0.00200000</i>
   <i name="RTIME">     -0.10000000</i>
   <i name="WPLASMAI">      0.00000000</i>
   <v name="DFIELD">      0.00000000      0.00000000      0.00000000</v>
   <v name="WPLASMA">      0.00000000      0.00000000      0.00000000      0.00000000      0.00000000      0.00000000      0.00000000      0.00000000      0.00000000</v>
  </separator>
  <separator name="orbital magnetization" >
   <i type="logical" name="NUCIND"> F  </i>
   <v name="MAGPOS">      0.00000000      0.00000000      0.00000000</v>
   <i type="logical" name="LNICSALL"> T  </i>
   <i type="logical" name="ORBITALMAG"> F  </i>
   <i type="logical" name="LMAGBLOCH"> F  </i>
   <i type="logical" name="LCHIMAG"> F  </i>
   <i type="logical" name="LGAUGE"> T  </i>
   <i type="int" name="MAGATOM">     0</i>
   <v name="MAGDIPOL">      0.00000000      0.00000000      0.00000000</v>
   <v name="AVECCONST">      0.00000000      0.00000000      0.00000000</v>
  </separator>
  <separator name="response functions" >
   <i type="logical" name="LFINITE_TEMPERATURE"> F  </i>
   <i type="logical" name="LADDER"> F  </i>
   <i type="logical" name="LRPAFORCE"> F  </i>
   <i type="logical" name="LFXC"> F  </i>
   <i type="logical" name="LHARTREE"> T  </i>
   <i type="int" name="IBSE">     0</i>
   <v type="int" name="KPOINT">    -1     0     0     0</v>
   <i type="logical" name="LTCTC"> F  </i>
   <i type="logical" name="LTCTE"> F  </i>
   <i type="logical" name="LTETE"> F  </i>
   <i type="logical" name="LTRIPLET"> F  </i>
   <i type="logical" name="LFXCEPS"> F  </i>
   <i type="logical" name="LFXHEG"> F  </i>
   <i type="int" name="NATURALO">     2</i>
   <i type="logical" name="LHOLEGF"> F  </i>
   <i type="logical" name="L2ORDER"> F  </i>
   <i type="logical" name="LDMP1"> F  </i>
   <i type="logical" name="LMP2LT"> F  </i>
   <i type="logical" name="LSMP2LT"> F  </i>
   <i type="logical" name="LGWLF"> F  </i>
   <i name="ENCUTGW">     -2.00000000</i>
   <i name="ENCUTGWSOFT">     -2.00000000</i>
   <i name="ENCUTLF">     -1.00000000</i>
   <i type="logical" name="LESF_SPLINES"> F  </i>
   <i type="int" name="LMAXMP2">    -1</i>
   <i name="SCISSOR">      0.00000000</i>
   <i type="int" name="NOMEGA">     0</i>
   <i type="int" name="NOMEGAR">     0</i>
   <i type="int" name="NBANDSGW">    -1</i>
   <i type="int" name="NBANDSO">    -1</i>
   <i type="int" name="NBANDSV">    -1</i>
   <i type="int" name="NELMGW">     1</i>
   <i type="int" name="NELMHF">     1</i>
   <i type="int" name="DIM">     3</i>
   <i type="int" name="IESPILON">     4</i>
   <i type="int" name="ANTIRES">     0</i>
   <i name="OMEGAMAX">    -30.00000000</i>
   <i name="OMEGAMIN">    -30.00000000</i>
   <i name="OMEGATL">   -200.00000000</i>
   <i type="int" name="OMEGAGRID">     0</i>
   <i name="CSHIFT">     -0.10000000</i>
   <i type="logical" name="LSELFENERGY"> F  </i>
   <i type="logical" name="LSPECTRAL"> F  </i>
   <i type="logical" name="LSPECTRALGW"> F  </i>
   <i type="logical" name="LSINGLES"> F  </i>
   <i type="logical" name="LFERMIGW"> F  </i>
   <i type="logical" name="ODDONLYGW"> F  </i>
   <i type="logical" name="EVENONLYGW"> F  </i>
   <i type="int" name="NKREDLFX">     1</i>
   <i type="int" name="NKREDLFY">     1</i>
   <i type="int" name="NKREDLFZ">     1</i>
   <i type="int" name="MAXMEM">  2800</i>
   <i type="int" name="TELESCOPE">     0</i>
   <i type="int" name="NTAUPAR">    -1</i>
   <i type="int" name="NOMEGAPAR">    -1</i>
   <i name="DAMP_NEWTON">      0.80000001</i>
   <i name="LAMBDA">      1.00000000</i>
  </separator>
  <separator name="External order field" >
   <i name="OFIELD_KAPPA">      0.00000000</i>
   <v name="OFIELD_K">      0.00000000      0.00000000      0.00000000</v>
   <i name="OFIELD_Q6_NEAR">      0.00000000</i>
   <i name="OFIELD_Q6_FAR">      0.00000000</i>
   <i name="OFIELD_A">      0.00000000</i>
  </separator>
  <separator name="optional k-points parameters" >
   <i type="int" name="KPOINTS_OPT_MODE">     1</i>
   <i type="logical" name="LKPOINTS_OPT"> F  </i>
  </separator>
 </parameters>
 <atominfo>
  <atoms>       7 </atoms>
  <types>       1 </types>
  <array name="atoms" >
   <dimension dim="1">ion</dimension>
   <field type="string">element</field>
   <field type="int">atomtype</field>
   <set>
    <rc><c>Si</c><c>   1</c></rc>
    <rc><c>Si</c><c>   1</c></rc>
    <rc><c>Si</c><c>   1</c></rc>
    <rc><c>Si</c><c>   1</c></rc>
    <rc><c>Si</c><c>   1</c></rc>
    <rc><c>Si</c><c>   1</c></rc>
    <rc><c>Si</c><c>   1</c></rc>
   </set>
  </array>
  <array name="atomtypes" >
   <dimension dim="1">type</dimension>
   <field type="int">atomspertype</field>
   <field type="string">element</field>
   <field>mass</field>
   <field>valence</field>
   <field type="string">pseudopotential</field>
   <set>
    <rc><c>   7</c><c>Si</c><c>     28.08500000</c><c>      4.00000000</c><c>  PAW_PBE Si 05Jan2001                  </c></rc>
   </set>
  </array>
 </atominfo>
 <structure name="initialpos" >
  <crystal>
   <varray name="basis" >
    <v>       5.43784835       0.00000000       0.00000000 </v>
    <v>       0.00000000       5.43784835       0.00000000 </v>
    <v>       0.00000000       0.00000000       5.43784835 </v>
   </varray>
   <i name="volume">    160.79823434 </i>
   <varray name="rec_basis" >
    <v>       0.18389626       0.00000000       0.00000000 </v>
    <v>       0.00000000       0.18389626       0.00000000 </v>
    <v>       0.00000000       0.00000000       0.18389626 </v>
   </varray>
  </crystal>
  <varray name="positions" >
   <v>       0.24194722       0.75805278       0.24194722 </v>
   <v>       0.00000000       0.00000000       0.50000000 </v>
   <v>       0.24194722       0.24194722       0.75805278 </v>
   <v>       0.00000000       0.50000000       0.00000000 </v>
   <v>       0.75805278       0.75805278       0.75805278 </v>
   <v>       0.50000000       0.00000000       0.00000000 </v>
   <v>       0.75805278       0.24194722       0.24194722 </v>
  </varray>
 </structure>
 <calculation>
  <scstep>
   <time name="dav">    5.21    5.21</time>
   <time name="total">    5.43    5.44</time>
   <energy>
    <i name="alphaZ">     10.25815623 </i>
    <i name="ewald">   -734.74418566 </i>
    <i name="hartreedc">    -66.07814922 </i>
    <i name="XCdc">    -62.30655279 </i>
    <i name="pawpsdc">    612.34974655 </i>
    <i name="pawaedc">   -491.33201702 </i>
    <i name="eentropy">     -0.00492664 </i>
    <i name="bandstr">    -10.22539731 </i>
    <i name="atom">    718.02812073 </i>
    <i name="e_fr_energy">    -24.05520515 </i>
    <i name="e_wo_entrp">    -24.05027850 </i>
    <i name="e_0_energy">    -24.05274182 </i>
   </energy>
  </scstep>
  <scstep>
   <time name="dav">   12.38   12.40</time>
   <time name="total">   12.38   12.40</time>
   <energy>
    <i name="e_fr_energy">    -42.28050373 </i>
    <i name="e_wo_entrp">    -42.27521446 </i>
    <i name="e_0_energy">    -42.27785910 </i>
   </energy>
  </scstep>
  <scstep>
   <time name="dav">    5.32    5.34</time>
   <time name="total">    5.32    5.34</time>
   <energy>
    <i name="e_fr_energy">    -42.29523220 </i>
    <i name="e_wo_entrp">    -42.28994292 </i>
    <i name="e_0_energy">    -42.29258756 </i>
   </energy>
  </scstep>
  <scstep>
   <time name="dav">   25.50   25.52</time>
   <time name="total">   25.50   25.52</time>
   <energy>
    <i name="e_fr_energy">    -42.29524024 </i>
    <i name="e_wo_entrp">    -42.28995097 </i>
    <i name="e_0_energy">    -42.29259561 </i>
   </energy>
  </scstep>
  <scstep>
   <time name="dav">    5.69    5.70</time>
   <time name="total">    5.74    5.75</time>
   <energy>
    <i name="e_fr_energy">    -42.29524024 </i>
    <i name="e_wo_entrp">    -42.28995097 </i>
    <i name="e_0_energy">    -42.29259561 </i>
   </energy>
  </scstep>
  <scstep>
   <time name="diag">    0.80    0.81</time>
   <time name="diis">    0.19    0.19</time>
   <time name="orth">    0.12    0.12</time>
   <time name="total">    1.39    1.40</time>
   <energy>
    <i name="e_fr_energy">    -41.78706486 </i>
    <i name="e_wo_entrp">    -41.78177558 </i>
    <i name="e_0_energy">    -41.78442022 </i>
   </energy>
  </scstep>
  <scstep>
   <time name="diag">    0.79    0.79</time>
   <time name="diis">    0.31    0.31</time>
   <time name="orth">    0.11    0.11</time>
   <time name="total">    1.48    1.48</time>
   <energy>
    <i name="e_fr_energy">    -41.57890808 </i>
    <i name="e_wo_entrp">    -41.57361881 </i>
    <i name="e_0_energy">    -41.57626344 </i>
   </energy>
  </scstep>
  <scstep>
   <time name="diag">    0.77    0.77</time>
   <time name="diis">    0.27    0.27</time>
   <time name="orth">    0.11    0.11</time>
   <time name="total">    1.42    1.43</time>
   <energy>
    <i name="e_fr_energy">    -41.57082070 </i>
    <i name="e_wo_entrp">    -41.56553142 </i>
    <i name="e_0_energy">    -41.56817606 </i>
   </energy>
  </scstep>
  <scstep>
   <time name="diag">    0.77    0.77</time>
   <time name="diis">    0.31    0.31</time>
   <time name="orth">    0.11    0.11</time>
   <time name="total">    1.46    1.47</time>
   <energy>
    <i name="e_fr_energy">    -41.57075281 </i>
    <i name="e_wo_entrp">    -41.56546354 </i>
    <i name="e_0_energy">    -41.56810818 </i>
   </energy>
  </scstep>
  <scstep>
   <time name="diag">    0.76    0.76</time>
   <time name="diis">    0.31    0.31</time>
   <time name="orth">    0.11    0.11</time>
   <time name="total">    1.44    1.46</time>
   <energy>
    <i name="e_fr_energy">    -41.57082051 </i>
    <i name="e_wo_entrp">    -41.56553123 </i>
    <i name="e_0_energy">    -41.56817587 </i>
   </energy>
  </scstep>
  <scstep>
   <time name="diag">    0.76    0.76</time>
   <time name="diis">    0.32    0.32</time>
   <time name="orth">    0.11    0.11</time>
   <time name="total">    1.45    1.46</time>
   <energy>
    <i name="e_fr_energy">    -41.57078303 </i>
    <i name="e_wo_entrp">    -41.56549375 </i>
    <i name="e_0_energy">    -41.56813839 </i>
   </energy>
  </scstep>
  <scstep>
   <time name="diag">    0.75    0.75</time>
   <time name="diis">    0.31    0.31</time>
   <time name="orth">    0.11    0.11</time>
   <time name="total">    1.40    1.41</time>
   <energy>
    <i name="alphaZ">     10.25815623 </i>
    <i name="ewald">   -734.74418566 </i>
    <i name="hartreedc">    -77.16092155 </i>
    <i name="XCdc">    -63.38016012 </i>
    <i name="pawpsdc">   2488.26677272 </i>
    <i name="pawaedc">  -2367.70750381 </i>
    <i name="eentropy">     -0.00528928 </i>
    <i name="bandstr">    -15.12577289 </i>
    <i name="atom">    718.02812073 </i>
    <i name="e_fr_energy">    -41.57078364 </i>
    <i name="e_wo_entrp">    -41.56549437 </i>
    <i name="e_0_energy">    -41.56813901 </i>
   </energy>
  </scstep>
  <structure>
   <crystal>
    <varray name="basis" >
     <v>       5.43784835       0.00000000       0.00000000 </v>
     <v>       0.00000000       5.43784835       0.00000000 </v>
     <v>       0.00000000       0.00000000       5.43784835 </v>
    </varray>
    <i name="volume">    160.79823434 </i>
    <varray name="rec_basis" >
     <v>       0.18389626       0.00000000       0.00000000 </v>
     <v>       0.00000000       0.18389626       0.00000000 </v>
     <v>       0.00000000       0.00000000       0.18389626 </v>
    </varray>
   </crystal>
   <varray name="positions" >
    <v>       0.24194722       0.75805278       0.24194722 </v>
    <v>       0.00000000       0.00000000       0.50000000 </v>
    <v>       0.24194722       0.24194722       0.75805278 </v>
    <v>       0.00000000       0.50000000       0.00000000 </v>
    <v>       0.75805278       0.75805278       0.75805278 </v>
    <v>       0.50000000       0.00000000       0.00000000 </v>
    <v>       0.75805278       0.24194722       0.24194722 </v>
   </varray>
  </structure>
  <varray name="forces" >
   <v>       0.06639225      -0.06639225       0.06639225 </v>
   <v>       0.00000000       0.00000000       0.00000000 </v>
   <v>       0.06639225       0.06639225      -0.06639225 </v>
   <v>       0.00000000       0.00000000       0.00000000 </v>
   <v>      -0.06639225      -0.06639225      -0.06639225 </v>
   <v>       0.00000000       0.00000000       0.00000000 </v>
   <v>      -0.06639225       0.06639225       0.06639225 </v>
  </varray>
  <varray name="stress" >
   <v>    -101.68288003       0.00000000       0.00000000 </v>
   <v>       0.00000000    -101.68288003      -0.00000000 </v>
   <v>      -0.00000000      -0.00000000    -101.68288003 </v>
  </varray>
  <energy>
   <i name="e_fr_energy">    -41.57078364 </i>
   <i name="e_wo_entrp">    -41.56549437 </i>
   <i name="e_0_energy">    -41.56813901 </i>
  </energy>
  <time name="totalsc">   67.26   67.52</time>
  <eigenvalues>
   <array>
    <dimension dim="1">band</dimension>
    <dimension dim="2">kpoint</dimension>
    <dimension dim="3">spin</dimension>
    <field>eigene</field>
    <field>occ</field>
    <set>
     <set comment="spin 1">
      <set comment="kpoint 1">
       <r>   -7.0649    1.0000 </r>
       <r>   -3.3749    1.0000 </r>
       <r>   -3.3749    1.0000 </r>
       <r>   -3.0040    1.0000 </r>
       <r>   -3.0040    1.0000 </r>
       <r>   -3.0040    1.0000 </r>
       <r>    1.5689    1.0000 </r>
       <r>    1.6785    1.0000 </r>
       <r>    1.6785    1.0000 </r>
       <r>    1.6785    1.0000 </r>
       <r>    2.6749    1.0000 </r>
       <r>    2.6749    1.0000 </r>
       <r>    2.6749    1.0000 </r>
       <r>    5.6850    0.0000 </r>
       <r>    5.6850    0.0000 </r>
       <r>    5.6850    0.0000 </r>
       <r>    5.9453    0.0000 </r>
       <r>    5.9542    0.0000 </r>
       <r>    5.9542    0.0000 </r>
       <r>    6.1397    0.0000 </r>
       <r>    6.1397    0.0000 </r>
       <r>    6.1397    0.0000 </r>
       <r>    9.0683    0.0000 </r>
       <r>    9.0683    0.0000 </r>
       <r>    9.0683    0.0000 </r>
       <r>   10.6693    0.0000 </r>
       <r>   12.8539    0.0000 </r>
       <r>   12.8539    0.0000 </r>
       <r>   13.5086    0.0000 </r>
       <r>   14.6911    0.0000 </r>
       <r>   14.6911    0.0000 </r>
       <r>   14.6911    0.0000 </r>
       <r>   15.3389    0.0000 </r>
       <r>   15.3389    0.0000 </r>
       <r>   15.3389    0.0000 </r>
       <r>   15.3807    0.0000 </r>
       <r>   15.3807    0.0000 </r>
       <r>   15.3807    0.0000 </r>
       <r>   16.5884    0.0000 </r>
       <r>   16.5884    0.0000 </r>
       <r>   16.5884    0.0000 </r>
       <r>   17.0713    0.0000 </r>
       <r>   17.4619    0.0000 </r>
       <r>   17.4619    0.0000 </r>
       <r>   17.5431    0.0000 </r>
       <r>   17.5431    0.0000 </r>
       <r>   17.5431    0.0000 </r>
       <r>   18.6030    0.0000 </r>
       <r>   18.6030    0.0000 </r>
       <r>   18.6030    0.0000 </r>
       <r>   19.2382    0.0000 </r>
       <r>   19.4422    0.0000 </r>
       <r>   19.4422    0.0000 </r>
       <r>   20.3301    0.0000 </r>
       <r>   21.1382    0.0000 </r>
       <r>   21.1382    0.0000 </r>
       <r>   21.1382    0.0000 </r>
       <r>   23.4740    0.0000 </r>
       <r>   23.8189    0.0000 </r>
       <r>   23.8189    0.0000 </r>
       <r>   23.8189    0.0000 </r>
       <r>   24.6588    0.0000 </r>
       <r>   24.6588    0.0000 </r>
       <r>   24.6588    0.0000 </r>
       <r>   25.1248    0.0000 </r>
       <r>   25.1248    0.0000 </r>
       <r>   25.1248    0.0000 </r>
       <r>   25.2925    0.0000 </r>
       <r>   25.2925    0.0000 </r>
       <r>   25.2925    0.0000 </r>
       <r>   26.0640    0.0000 </r>
       <r>   26.0640    0.0000 </r>
       <r>   26.1879    0.0000 </r>
       <r>   26.1879    0.0000 </r>
       <r>   26.6426    0.0000 </r>
       <r>   26.6426    0.0000 </r>
       <r>   26.6426    0.0000 </r>
       <r>   27.5171    0.0000 </r>
       <r>   27.5171    0.0000 </r>
       <r>   27.5171    0.0000 </r>
       <r>   27.7237    0.0000 </r>
       <r>   28.1247    0.0000 </r>
       <r>   28.1247    0.0000 </r>
       <r>   28.1247    0.0000 </r>
       <r>   29.3083    0.0000 </r>
       <r>   29.3083    0.0000 </r>
       <r>   31.0833    0.0000 </r>
       <r>   31.4951    0.0000 </r>
       <r>   31.4951    0.0000 </r>
       <r>   31.4951    0.0000 </r>
       <r>   32.8744    0.0000 </r>
       <r>   32.8744    0.0000 </r>
       <r>   33.6160    0.0000 </r>
       <r>   33.6160    0.0000 </r>
       <r>   33.6160    0.0000 </r>
       <r>   33.6223    0.0000 </r>
       <r>   33.6223    0.0000 </r>
       <r>   33.6223    0.0000 </r>
       <r>   36.1694    0.0000 </r>
       <r>   36.1694    0.0000 </r>
       <r>   36.1694    0.0000 </r>
       <r>   37.0662    0.0000 </r>
       <r>   37.0662    0.0000 </r>
       <r>   37.0662    0.0000 </r>
       <r>   39.0556    0.0000 </r>
       <r>   39.0556    0.0000 </r>
       <r>   39.1658    0.0000 </r>
       <r>   39.1658    0.0000 </r>
       <r>   39.1658    0.0000 </r>
       <r>   39.2143    0.0000 </r>
       <r>   39.2143    0.0000 </r>
       <r>   39.2143    0.0000 </r>
       <r>   39.5003    0.0000 </r>
       <r>   40.5195    0.0000 </r>
       <r>   40.5195    0.0000 </r>
       <r>   40.5195    0.0000 </r>
       <r>   40.5895    0.0000 </r>
       <r>   40.9179    0.0000 </r>
       <r>   40.9179    0.0000 </r>
       <r>   40.9179    0.0000 </r>
       <r>   42.1483    0.0000 </r>
       <r>   42.1483    0.0000 </r>
       <r>   42.5581    0.0000 </r>
       <r>   42.5581    0.0000 </r>
       <r>   42.5581    0.0000 </r>
       <r>   42.6988    0.0000 </r>
       <r>   42.9181    0.0000 </r>
       <r>   43.1307    0.0000 </r>
       <r>   43.1307    0.0000 </r>
       <r>   43.1307    0.0000 </r>
       <r>   43.3715    0.0000 </r>
       <r>   43.3715    0.0000 </r>
       <r>   44.3262    0.0000 </r>
       <r>   44.3262    0.0000 </r>
       <r>   44.3262    0.0000 </r>
       <r>   45.1014    0.0000 </r>
       <r>   45.1024    0.0000 </r>
       <r>   45.3287    0.0000 </r>
       <r>   45.3287    0.0000 </r>
       <r>   45.3287    0.0000 </r>
       <r>   45.4443    0.0000 </r>
       <r>   45.4443    0.0000 </r>
       <r>   45.4443    0.0000 </r>
       <r>   46.1975    0.0000 </r>
      </set>
      <set comment="kpoint 2">
       <r>   -6.8291    1.0000 </r>
       <r>   -4.6975    1.0000 </r>
       <r>   -3.3144    1.0000 </r>
       <r>   -2.9391    1.0000 </r>
       <r>   -2.9391    1.0000 </r>
       <r>   -1.5823    1.0000 </r>
       <r>    1.2471    1.0000 </r>
       <r>    1.3987    1.0000 </r>
       <r>    1.3987    1.0000 </r>
       <r>    1.6600    1.0000 </r>
       <r>    2.1158    1.0000 </r>
       <r>    2.5357    1.0000 </r>
       <r>    2.5357    1.0000 </r>
       <r>    5.0579    0.0000 </r>
       <r>    5.5379    0.0000 </r>
       <r>    5.5379    0.0000 </r>
       <r>    5.7929    0.0000 </r>
       <r>    6.3993    0.0000 </r>
       <r>    6.9381    0.0000 </r>
       <r>    6.9381    0.0000 </r>
       <r>    7.0830    0.0000 </r>
       <r>    7.2858    0.0000 </r>
       <r>    8.6987    0.0000 </r>
       <r>    9.9934    0.0000 </r>
       <r>    9.9934    0.0000 </r>
       <r>   10.9005    0.0000 </r>
       <r>   12.1630    0.0000 </r>
       <r>   12.3265    0.0000 </r>
       <r>   12.3265    0.0000 </r>
       <r>   12.6216    0.0000 </r>
       <r>   13.1317    0.0000 </r>
       <r>   13.5808    0.0000 </r>
       <r>   14.6075    0.0000 </r>
       <r>   14.6470    0.0000 </r>
       <r>   14.6470    0.0000 </r>
       <r>   14.8454    0.0000 </r>
       <r>   15.7741    0.0000 </r>
       <r>   15.7741    0.0000 </r>
       <r>   16.1225    0.0000 </r>
       <r>   16.7696    0.0000 </r>
       <r>   16.9323    0.0000 </r>
       <r>   16.9323    0.0000 </r>
       <r>   17.2225    0.0000 </r>
       <r>   17.4862    0.0000 </r>
       <r>   18.0224    0.0000 </r>
       <r>   18.4209    0.0000 </r>
       <r>   18.4209    0.0000 </r>
       <r>   19.2091    0.0000 </r>
       <r>   19.2091    0.0000 </r>
       <r>   19.4977    0.0000 </r>
       <r>   19.8095    0.0000 </r>
       <r>   20.1127    0.0000 </r>
       <r>   20.9498    0.0000 </r>
       <r>   21.2229    0.0000 </r>
       <r>   21.5001    0.0000 </r>
       <r>   21.5001    0.0000 </r>
       <r>   21.6619    0.0000 </r>
       <r>   22.3336    0.0000 </r>
       <r>   22.5344    0.0000 </r>
       <r>   22.5344    0.0000 </r>
       <r>   23.0887    0.0000 </r>
       <r>   23.5081    0.0000 </r>
       <r>   23.5081    0.0000 </r>
       <r>   23.9172    0.0000 </r>
       <r>   24.3580    0.0000 </r>
       <r>   24.4529    0.0000 </r>
       <r>   24.6630    0.0000 </r>
       <r>   24.6630    0.0000 </r>
       <r>   25.2642    0.0000 </r>
       <r>   25.6203    0.0000 </r>
       <r>   25.6203    0.0000 </r>
       <r>   26.3291    0.0000 </r>
       <r>   26.9778    0.0000 </r>
       <r>   27.3377    0.0000 </r>
       <r>   27.3377    0.0000 </r>
       <r>   27.8820    0.0000 </r>
       <r>   27.9315    0.0000 </r>
       <r>   28.1700    0.0000 </r>
       <r>   28.5971    0.0000 </r>
       <r>   28.7725    0.0000 </r>
       <r>   28.7725    0.0000 </r>
       <r>   28.8017    0.0000 </r>
       <r>   29.4322    0.0000 </r>
       <r>   29.7560    0.0000 </r>
       <r>   29.7560    0.0000 </r>
       <r>   30.1205    0.0000 </r>
       <r>   30.5980    0.0000 </r>
       <r>   30.8956    0.0000 </r>
       <r>   31.3557    0.0000 </r>
       <r>   31.5437    0.0000 </r>
       <r>   31.5437    0.0000 </r>
       <r>   32.7184    0.0000 </r>
       <r>   32.7184    0.0000 </r>
       <r>   32.8193    0.0000 </r>
       <r>   34.1789    0.0000 </r>
       <r>   34.8476    0.0000 </r>
       <r>   34.8476    0.0000 </r>
       <r>   34.9190    0.0000 </r>
       <r>   35.2209    0.0000 </r>
       <r>   35.9353    0.0000 </r>
       <r>   35.9353    0.0000 </r>
       <r>   36.7687    0.0000 </r>
       <r>   36.7687    0.0000 </r>
       <r>   36.9220    0.0000 </r>
       <r>   36.9627    0.0000 </r>
       <r>   37.3570    0.0000 </r>
       <r>   37.3811    0.0000 </r>
       <r>   37.5179    0.0000 </r>
       <r>   37.5179    0.0000 </r>
       <r>   38.4458    0.0000 </r>
       <r>   38.4458    0.0000 </r>
       <r>   38.5949    0.0000 </r>
       <r>   38.6659    0.0000 </r>
       <r>   39.9626    0.0000 </r>
       <r>   40.0638    0.0000 </r>
       <r>   40.0638    0.0000 </r>
       <r>   40.6313    0.0000 </r>
       <r>   40.6814    0.0000 </r>
       <r>   40.7510    0.0000 </r>
       <r>   40.7510    0.0000 </r>
       <r>   41.0639    0.0000 </r>
       <r>   41.8975    0.0000 </r>
       <r>   42.0281    0.0000 </r>
       <r>   42.3177    0.0000 </r>
       <r>   42.4432    0.0000 </r>
       <r>   42.4432    0.0000 </r>
       <r>   42.7853    0.0000 </r>
       <r>   43.4207    0.0000 </r>
       <r>   43.4207    0.0000 </r>
       <r>   43.7155    0.0000 </r>
       <r>   44.4260    0.0000 </r>
       <r>   44.5033    0.0000 </r>
       <r>   44.6692    0.0000 </r>
       <r>   44.6693    0.0000 </r>
       <r>   44.7011    0.0000 </r>
       <r>   44.8965    0.0000 </r>
       <r>   45.0160    0.0000 </r>
       <r>   45.0160    0.0000 </r>
       <r>   45.1728    0.0000 </r>
       <r>   45.3921    0.0000 </r>
       <r>   45.7352    0.0000 </r>
       <r>   45.7353    0.0000 </r>
       <r>   46.2897    0.0000 </r>
       <r>   46.3072    0.0000 </r>
      </set>
      <set comment="kpoint 3">
       <r>   -6.3812    1.0000 </r>
       <r>   -5.5871    1.0000 </r>
       <r>   -3.2496    1.0000 </r>
       <r>   -2.8689    1.0000 </r>
       <r>   -2.8689    1.0000 </r>
       <r>   -0.4562    1.0000 </r>
       <r>    0.6033    1.0000 </r>
       <r>    0.8929    1.0000 </r>
       <r>    1.0882    1.0000 </r>
       <r>    1.0882    1.0000 </r>
       <r>    2.5626    1.0000 </r>
       <r>    2.5626    1.0000 </r>
       <r>    3.0395    1.0000 </r>
       <r>    3.7964    1.0000 </r>
       <r>    5.1203    0.0000 </r>
       <r>    5.1203    0.0000 </r>
       <r>    6.1415    0.0000 </r>
       <r>    6.5845    0.0000 </r>
       <r>    8.0728    0.0000 </r>
       <r>    9.0676    0.0000 </r>
       <r>    9.0676    0.0000 </r>
       <r>    9.2933    0.0000 </r>
       <r>    9.4404    0.0000 </r>
       <r>    9.6884    0.0000 </r>
       <r>    9.6884    0.0000 </r>
       <r>    9.7346    0.0000 </r>
       <r>   10.4575    0.0000 </r>
       <r>   10.6235    0.0000 </r>
       <r>   11.3146    0.0000 </r>
       <r>   11.3146    0.0000 </r>
       <r>   13.2990    0.0000 </r>
       <r>   13.2990    0.0000 </r>
       <r>   13.4121    0.0000 </r>
       <r>   14.4006    0.0000 </r>
       <r>   14.7091    0.0000 </r>
       <r>   14.7625    0.0000 </r>
       <r>   15.3764    0.0000 </r>
       <r>   15.7452    0.0000 </r>
       <r>   15.7452    0.0000 </r>
       <r>   16.4940    0.0000 </r>
       <r>   17.0199    0.0000 </r>
       <r>   17.4907    0.0000 </r>
       <r>   17.6266    0.0000 </r>
       <r>   17.6266    0.0000 </r>
       <r>   18.2534    0.0000 </r>
       <r>   18.4132    0.0000 </r>
       <r>   18.8022    0.0000 </r>
       <r>   18.8022    0.0000 </r>
       <r>   19.7040    0.0000 </r>
       <r>   19.8346    0.0000 </r>
       <r>   19.8346    0.0000 </r>
       <r>   20.7405    0.0000 </r>
       <r>   21.6094    0.0000 </r>
       <r>   21.6094    0.0000 </r>
       <r>   21.6508    0.0000 </r>
       <r>   21.7886    0.0000 </r>
       <r>   22.2809    0.0000 </r>
       <r>   22.2809    0.0000 </r>
       <r>   22.5271    0.0000 </r>
       <r>   22.5271    0.0000 </r>
       <r>   22.9427    0.0000 </r>
       <r>   23.0247    0.0000 </r>
       <r>   23.6290    0.0000 </r>
       <r>   23.6290    0.0000 </r>
       <r>   24.0249    0.0000 </r>
       <r>   24.0255    0.0000 </r>
       <r>   24.1143    0.0000 </r>
       <r>   24.8058    0.0000 </r>
       <r>   24.9509    0.0000 </r>
       <r>   25.6306    0.0000 </r>
       <r>   26.4821    0.0000 </r>
       <r>   26.4821    0.0000 </r>
       <r>   26.5778    0.0000 </r>
       <r>   26.7253    0.0000 </r>
       <r>   27.2612    0.0000 </r>
       <r>   27.2612    0.0000 </r>
       <r>   27.2882    0.0000 </r>
       <r>   27.4796    0.0000 </r>
       <r>   29.5293    0.0000 </r>
       <r>   29.8144    0.0000 </r>
       <r>   30.0209    0.0000 </r>
       <r>   30.0209    0.0000 </r>
       <r>   30.3169    0.0000 </r>
       <r>   31.4084    0.0000 </r>
       <r>   31.6480    0.0000 </r>
       <r>   31.7330    0.0000 </r>
       <r>   31.7330    0.0000 </r>
       <r>   32.0159    0.0000 </r>
       <r>   32.2751    0.0000 </r>
       <r>   32.5400    0.0000 </r>
       <r>   32.5400    0.0000 </r>
       <r>   32.6786    0.0000 </r>
       <r>   32.6786    0.0000 </r>
       <r>   32.6844    0.0000 </r>
       <r>   33.9482    0.0000 </r>
       <r>   33.9712    0.0000 </r>
       <r>   34.2506    0.0000 </r>
       <r>   34.2506    0.0000 </r>
       <r>   34.4859    0.0000 </r>
       <r>   34.6468    0.0000 </r>
       <r>   34.7230    0.0000 </r>
       <r>   34.7230    0.0000 </r>
       <r>   35.0594    0.0000 </r>
       <r>   35.5508    0.0000 </r>
       <r>   35.5508    0.0000 </r>
       <r>   35.8367    0.0000 </r>
       <r>   36.4783    0.0000 </r>
       <r>   36.4783    0.0000 </r>
       <r>   36.7613    0.0000 </r>
       <r>   38.1072    0.0000 </r>
       <r>   38.2153    0.0000 </r>
       <r>   38.2153    0.0000 </r>
       <r>   39.0421    0.0000 </r>
       <r>   39.7787    0.0000 </r>
       <r>   39.9323    0.0000 </r>
       <r>   40.4581    0.0000 </r>
       <r>   40.5543    0.0000 </r>
       <r>   40.5849    0.0000 </r>
       <r>   40.5849    0.0000 </r>
       <r>   41.3812    0.0000 </r>
       <r>   41.3812    0.0000 </r>
       <r>   41.5584    0.0000 </r>
       <r>   41.7506    0.0000 </r>
       <r>   42.0876    0.0000 </r>
       <r>   42.0876    0.0000 </r>
       <r>   42.2014    0.0000 </r>
       <r>   42.7926    0.0000 </r>
       <r>   42.7926    0.0000 </r>
       <r>   42.9479    0.0000 </r>
       <r>   43.0047    0.0000 </r>
       <r>   43.4473    0.0000 </r>
       <r>   43.4473    0.0000 </r>
       <r>   44.1917    0.0000 </r>
       <r>   44.5891    0.0000 </r>
       <r>   44.8514    0.0000 </r>
       <r>   44.8514    0.0000 </r>
       <r>   45.0925    0.0000 </r>
       <r>   45.1747    0.0000 </r>
       <r>   45.1747    0.0000 </r>
       <r>   45.5858    0.0000 </r>
       <r>   45.8704    0.0000 </r>
       <r>   46.0548    0.0000 </r>
       <r>   46.7303    0.0000 </r>
       <r>   46.7427    0.0000 </r>
      </set>
      <set comment="kpoint 4">
       <r>   -6.5954    1.0000 </r>
       <r>   -4.7713    1.0000 </r>
       <r>   -4.3003    1.0000 </r>
       <r>   -2.9902    1.0000 </r>
       <r>   -2.0946    1.0000 </r>
       <r>   -1.2132    1.0000 </r>
       <r>    0.4479    1.0000 </r>
       <r>    1.2579    1.0000 </r>
       <r>    1.4742    1.0000 </r>
       <r>    1.7952    1.0000 </r>
       <r>    1.8253    1.0000 </r>
       <r>    2.7543    1.0000 </r>
       <r>    2.7804    1.0000 </r>
       <r>    4.3033    0.5000 </r>
       <r>    5.0303    0.0000 </r>
       <r>    5.8705    0.0000 </r>
       <r>    6.2129    0.0000 </r>
       <r>    6.8116    0.0000 </r>
       <r>    7.1573    0.0000 </r>
       <r>    7.4867    0.0000 </r>
       <r>    7.5575    0.0000 </r>
       <r>    8.9799    0.0000 </r>
       <r>    9.6147    0.0000 </r>
       <r>    9.6536    0.0000 </r>
       <r>    9.8589    0.0000 </r>
       <r>   10.2038    0.0000 </r>
       <r>   11.5837    0.0000 </r>
       <r>   11.6025    0.0000 </r>
       <r>   12.2227    0.0000 </r>
       <r>   12.2899    0.0000 </r>
       <r>   12.6830    0.0000 </r>
       <r>   13.2219    0.0000 </r>
       <r>   13.2236    0.0000 </r>
       <r>   14.1790    0.0000 </r>
       <r>   14.4771    0.0000 </r>
       <r>   15.0592    0.0000 </r>
       <r>   15.1186    0.0000 </r>
       <r>   15.3891    0.0000 </r>
       <r>   16.0091    0.0000 </r>
       <r>   16.3748    0.0000 </r>
       <r>   16.5482    0.0000 </r>
       <r>   16.7610    0.0000 </r>
       <r>   17.7765    0.0000 </r>
       <r>   18.1518    0.0000 </r>
       <r>   18.5873    0.0000 </r>
       <r>   18.8211    0.0000 </r>
       <r>   18.8927    0.0000 </r>
       <r>   19.2562    0.0000 </r>
       <r>   19.4956    0.0000 </r>
       <r>   19.6209    0.0000 </r>
       <r>   19.9334    0.0000 </r>
       <r>   20.1537    0.0000 </r>
       <r>   20.3323    0.0000 </r>
       <r>   21.1574    0.0000 </r>
       <r>   21.2843    0.0000 </r>
       <r>   21.6594    0.0000 </r>
       <r>   21.7615    0.0000 </r>
       <r>   22.4497    0.0000 </r>
       <r>   22.6217    0.0000 </r>
       <r>   22.7581    0.0000 </r>
       <r>   22.9385    0.0000 </r>
       <r>   23.2016    0.0000 </r>
       <r>   23.4500    0.0000 </r>
       <r>   23.9387    0.0000 </r>
       <r>   24.4648    0.0000 </r>
       <r>   24.9547    0.0000 </r>
       <r>   25.1844    0.0000 </r>
       <r>   25.2310    0.0000 </r>
       <r>   25.8717    0.0000 </r>
       <r>   25.9196    0.0000 </r>
       <r>   26.4573    0.0000 </r>
       <r>   26.4895    0.0000 </r>
       <r>   26.7359    0.0000 </r>
       <r>   27.0468    0.0000 </r>
       <r>   27.3102    0.0000 </r>
       <r>   27.6518    0.0000 </r>
       <r>   27.6739    0.0000 </r>
       <r>   27.9398    0.0000 </r>
       <r>   28.4665    0.0000 </r>
       <r>   28.6886    0.0000 </r>
       <r>   28.9253    0.0000 </r>
       <r>   29.2800    0.0000 </r>
       <r>   29.4565    0.0000 </r>
       <r>   30.0602    0.0000 </r>
       <r>   30.4606    0.0000 </r>
       <r>   30.8747    0.0000 </r>
       <r>   31.0754    0.0000 </r>
       <r>   31.2600    0.0000 </r>
       <r>   32.2858    0.0000 </r>
       <r>   32.2882    0.0000 </r>
       <r>   32.6629    0.0000 </r>
       <r>   32.9596    0.0000 </r>
       <r>   33.1038    0.0000 </r>
       <r>   33.2806    0.0000 </r>
       <r>   33.6288    0.0000 </r>
       <r>   33.7338    0.0000 </r>
       <r>   34.5427    0.0000 </r>
       <r>   34.6046    0.0000 </r>
       <r>   34.7878    0.0000 </r>
       <r>   35.3875    0.0000 </r>
       <r>   35.5281    0.0000 </r>
       <r>   35.5642    0.0000 </r>
       <r>   36.0973    0.0000 </r>
       <r>   36.7464    0.0000 </r>
       <r>   36.8149    0.0000 </r>
       <r>   37.1783    0.0000 </r>
       <r>   37.4575    0.0000 </r>
       <r>   37.5163    0.0000 </r>
       <r>   37.8008    0.0000 </r>
       <r>   38.0542    0.0000 </r>
       <r>   38.2145    0.0000 </r>
       <r>   38.2895    0.0000 </r>
       <r>   38.7211    0.0000 </r>
       <r>   38.8262    0.0000 </r>
       <r>   39.2609    0.0000 </r>
       <r>   39.3207    0.0000 </r>
       <r>   39.6386    0.0000 </r>
       <r>   39.7276    0.0000 </r>
       <r>   40.1055    0.0000 </r>
       <r>   40.2030    0.0000 </r>
       <r>   40.8211    0.0000 </r>
       <r>   41.1273    0.0000 </r>
       <r>   41.2846    0.0000 </r>
       <r>   42.2423    0.0000 </r>
       <r>   42.3924    0.0000 </r>
       <r>   42.4505    0.0000 </r>
       <r>   42.6902    0.0000 </r>
       <r>   43.0733    0.0000 </r>
       <r>   43.1179    0.0000 </r>
       <r>   43.4937    0.0000 </r>
       <r>   43.5511    0.0000 </r>
       <r>   43.6527    0.0000 </r>
       <r>   44.1913    0.0000 </r>
       <r>   44.2404    0.0000 </r>
       <r>   44.6078    0.0000 </r>
       <r>   44.9934    0.0000 </r>
       <r>   45.0275    0.0000 </r>
       <r>   45.0949    0.0000 </r>
       <r>   45.2207    0.0000 </r>
       <r>   46.1329    0.0000 </r>
       <r>   46.1780    0.0000 </r>
       <r>   46.2533    0.0000 </r>
       <r>   46.4852    0.0000 </r>
       <r>   46.7403    0.0000 </r>
      </set>
      <set comment="kpoint 5">
       <r>   -6.1380    1.0000 </r>
       <r>   -5.4670    1.0000 </r>
       <r>   -4.3362    1.0000 </r>
       <r>   -3.0825    1.0000 </r>
       <r>   -1.8400    1.0000 </r>
       <r>   -0.6441    1.0000 </r>
       <r>    0.1351    1.0000 </r>
       <r>    0.5619    1.0000 </r>
       <r>    1.4792    1.0000 </r>
       <r>    1.6657    1.0000 </r>
       <r>    2.3190    1.0000 </r>
       <r>    2.4724    1.0000 </r>
       <r>    3.0150    1.0000 </r>
       <r>    3.8876    1.0000 </r>
       <r>    5.0733    0.0000 </r>
       <r>    5.1820    0.0000 </r>
       <r>    7.2602    0.0000 </r>
       <r>    7.6681    0.0000 </r>
       <r>    7.7567    0.0000 </r>
       <r>    7.7933    0.0000 </r>
       <r>    9.0123    0.0000 </r>
       <r>    9.3239    0.0000 </r>
       <r>    9.3893    0.0000 </r>
       <r>    9.9094    0.0000 </r>
       <r>    9.9780    0.0000 </r>
       <r>   10.2415    0.0000 </r>
       <r>   10.4164    0.0000 </r>
       <r>   10.8287    0.0000 </r>
       <r>   11.7763    0.0000 </r>
       <r>   11.8739    0.0000 </r>
       <r>   12.4631    0.0000 </r>
       <r>   12.4687    0.0000 </r>
       <r>   13.1518    0.0000 </r>
       <r>   13.2304    0.0000 </r>
       <r>   13.5320    0.0000 </r>
       <r>   14.2457    0.0000 </r>
       <r>   15.6428    0.0000 </r>
       <r>   15.6631    0.0000 </r>
       <r>   15.8260    0.0000 </r>
       <r>   16.4065    0.0000 </r>
       <r>   16.7301    0.0000 </r>
       <r>   17.0371    0.0000 </r>
       <r>   17.4705    0.0000 </r>
       <r>   17.9005    0.0000 </r>
       <r>   18.7556    0.0000 </r>
       <r>   18.9312    0.0000 </r>
       <r>   19.0387    0.0000 </r>
       <r>   19.3537    0.0000 </r>
       <r>   19.5405    0.0000 </r>
       <r>   19.8590    0.0000 </r>
       <r>   20.0889    0.0000 </r>
       <r>   20.4255    0.0000 </r>
       <r>   20.4446    0.0000 </r>
       <r>   20.6192    0.0000 </r>
       <r>   21.0997    0.0000 </r>
       <r>   21.4256    0.0000 </r>
       <r>   22.2143    0.0000 </r>
       <r>   22.4497    0.0000 </r>
       <r>   22.6017    0.0000 </r>
       <r>   22.8893    0.0000 </r>
       <r>   22.9837    0.0000 </r>
       <r>   23.6883    0.0000 </r>
       <r>   23.8422    0.0000 </r>
       <r>   23.8559    0.0000 </r>
       <r>   24.8786    0.0000 </r>
       <r>   25.0134    0.0000 </r>
       <r>   25.0703    0.0000 </r>
       <r>   25.6713    0.0000 </r>
       <r>   25.8285    0.0000 </r>
       <r>   26.0554    0.0000 </r>
       <r>   26.1349    0.0000 </r>
       <r>   26.7402    0.0000 </r>
       <r>   27.2328    0.0000 </r>
       <r>   27.2494    0.0000 </r>
       <r>   27.4575    0.0000 </r>
       <r>   27.6971    0.0000 </r>
       <r>   28.0201    0.0000 </r>
       <r>   28.3654    0.0000 </r>
       <r>   28.9190    0.0000 </r>
       <r>   29.1328    0.0000 </r>
       <r>   29.1982    0.0000 </r>
       <r>   29.7236    0.0000 </r>
       <r>   29.7849    0.0000 </r>
       <r>   30.5263    0.0000 </r>
       <r>   30.8706    0.0000 </r>
       <r>   31.3345    0.0000 </r>
       <r>   31.6575    0.0000 </r>
       <r>   31.7076    0.0000 </r>
       <r>   32.3603    0.0000 </r>
       <r>   32.4683    0.0000 </r>
       <r>   32.4737    0.0000 </r>
       <r>   32.9880    0.0000 </r>
       <r>   33.0476    0.0000 </r>
       <r>   33.0743    0.0000 </r>
       <r>   33.5903    0.0000 </r>
       <r>   33.9800    0.0000 </r>
       <r>   34.0382    0.0000 </r>
       <r>   34.4190    0.0000 </r>
       <r>   34.7007    0.0000 </r>
       <r>   34.9618    0.0000 </r>
       <r>   35.0179    0.0000 </r>
       <r>   35.1523    0.0000 </r>
       <r>   35.6452    0.0000 </r>
       <r>   36.1646    0.0000 </r>
       <r>   36.3163    0.0000 </r>
       <r>   36.3642    0.0000 </r>
       <r>   36.5448    0.0000 </r>
       <r>   36.8846    0.0000 </r>
       <r>   37.3098    0.0000 </r>
       <r>   37.4437    0.0000 </r>
       <r>   37.8530    0.0000 </r>
       <r>   38.2726    0.0000 </r>
       <r>   38.4111    0.0000 </r>
       <r>   38.7081    0.0000 </r>
       <r>   39.0758    0.0000 </r>
       <r>   39.2795    0.0000 </r>
       <r>   39.3956    0.0000 </r>
       <r>   39.5142    0.0000 </r>
       <r>   40.3328    0.0000 </r>
       <r>   40.3695    0.0000 </r>
       <r>   40.4799    0.0000 </r>
       <r>   40.7957    0.0000 </r>
       <r>   40.9027    0.0000 </r>
       <r>   41.7238    0.0000 </r>
       <r>   41.7662    0.0000 </r>
       <r>   42.0764    0.0000 </r>
       <r>   42.0853    0.0000 </r>
       <r>   42.8756    0.0000 </r>
       <r>   42.9580    0.0000 </r>
       <r>   43.2171    0.0000 </r>
       <r>   43.3754    0.0000 </r>
       <r>   43.4407    0.0000 </r>
       <r>   44.0165    0.0000 </r>
       <r>   44.0343    0.0000 </r>
       <r>   44.4955    0.0000 </r>
       <r>   44.9047    0.0000 </r>
       <r>   45.2073    0.0000 </r>
       <r>   45.2390    0.0000 </r>
       <r>   45.5557    0.0000 </r>
       <r>   45.6932    0.0000 </r>
       <r>   45.8185    0.0000 </r>
       <r>   46.2048    0.0000 </r>
       <r>   46.3788    0.0000 </r>
       <r>   46.4970    0.0000 </r>
      </set>
      <set comment="kpoint 6">
       <r>   -5.5235    1.0000 </r>
       <r>   -5.3209    1.0000 </r>
       <r>   -5.3209    1.0000 </r>
       <r>   -3.3448    1.0000 </r>
       <r>   -0.8328    1.0000 </r>
       <r>   -0.6512    1.0000 </r>
       <r>   -0.6512    1.0000 </r>
       <r>    0.4554    1.0000 </r>
       <r>    1.3236    1.0000 </r>
       <r>    1.3236    1.0000 </r>
       <r>    2.7246    1.0000 </r>
       <r>    2.8773    1.0000 </r>
       <r>    3.3005    1.0000 </r>
       <r>    3.5601    1.0000 </r>
       <r>    5.5131    0.0000 </r>
       <r>    5.5131    0.0000 </r>
       <r>    6.9499    0.0000 </r>
       <r>    6.9499    0.0000 </r>
       <r>    8.6196    0.0000 </r>
       <r>    8.8172    0.0000 </r>
       <r>    9.3289    0.0000 </r>
       <r>    9.5579    0.0000 </r>
       <r>    9.6639    0.0000 </r>
       <r>    9.6639    0.0000 </r>
       <r>    9.9895    0.0000 </r>
       <r>   10.2791    0.0000 </r>
       <r>   10.2950    0.0000 </r>
       <r>   10.2950    0.0000 </r>
       <r>   11.2195    0.0000 </r>
       <r>   11.9246    0.0000 </r>
       <r>   11.9246    0.0000 </r>
       <r>   13.0162    0.0000 </r>
       <r>   13.0162    0.0000 </r>
       <r>   13.1013    0.0000 </r>
       <r>   13.3069    0.0000 </r>
       <r>   13.3560    0.0000 </r>
       <r>   14.4845    0.0000 </r>
       <r>   15.6159    0.0000 </r>
       <r>   15.6159    0.0000 </r>
       <r>   15.7040    0.0000 </r>
       <r>   16.9450    0.0000 </r>
       <r>   17.7327    0.0000 </r>
       <r>   17.7496    0.0000 </r>
       <r>   17.7496    0.0000 </r>
       <r>   18.4004    0.0000 </r>
       <r>   18.4004    0.0000 </r>
       <r>   18.5723    0.0000 </r>
       <r>   19.2306    0.0000 </r>
       <r>   19.3570    0.0000 </r>
       <r>   19.3570    0.0000 </r>
       <r>   19.7555    0.0000 </r>
       <r>   20.9184    0.0000 </r>
       <r>   21.6316    0.0000 </r>
       <r>   21.6316    0.0000 </r>
       <r>   21.7424    0.0000 </r>
       <r>   21.8465    0.0000 </r>
       <r>   22.0690    0.0000 </r>
       <r>   22.2325    0.0000 </r>
       <r>   22.2325    0.0000 </r>
       <r>   22.3220    0.0000 </r>
       <r>   23.1949    0.0000 </r>
       <r>   23.5407    0.0000 </r>
       <r>   23.5407    0.0000 </r>
       <r>   23.6123    0.0000 </r>
       <r>   24.8881    0.0000 </r>
       <r>   25.4502    0.0000 </r>
       <r>   25.9773    0.0000 </r>
       <r>   25.9773    0.0000 </r>
       <r>   26.4041    0.0000 </r>
       <r>   26.4041    0.0000 </r>
       <r>   26.5782    0.0000 </r>
       <r>   27.1160    0.0000 </r>
       <r>   27.3730    0.0000 </r>
       <r>   27.3730    0.0000 </r>
       <r>   27.7911    0.0000 </r>
       <r>   28.0669    0.0000 </r>
       <r>   29.0838    0.0000 </r>
       <r>   29.5279    0.0000 </r>
       <r>   29.5279    0.0000 </r>
       <r>   29.7991    0.0000 </r>
       <r>   29.9228    0.0000 </r>
       <r>   29.9228    0.0000 </r>
       <r>   30.2707    0.0000 </r>
       <r>   30.6060    0.0000 </r>
       <r>   31.1731    0.0000 </r>
       <r>   31.2132    0.0000 </r>
       <r>   31.6134    0.0000 </r>
       <r>   31.6134    0.0000 </r>
       <r>   32.0660    0.0000 </r>
       <r>   32.0821    0.0000 </r>
       <r>   32.0821    0.0000 </r>
       <r>   32.0972    0.0000 </r>
       <r>   32.6944    0.0000 </r>
       <r>   32.7233    0.0000 </r>
       <r>   32.7233    0.0000 </r>
       <r>   32.9669    0.0000 </r>
       <r>   32.9669    0.0000 </r>
       <r>   33.7207    0.0000 </r>
       <r>   33.7415    0.0000 </r>
       <r>   33.7592    0.0000 </r>
       <r>   34.6748    0.0000 </r>
       <r>   34.7627    0.0000 </r>
       <r>   35.7375    0.0000 </r>
       <r>   35.9655    0.0000 </r>
       <r>   35.9655    0.0000 </r>
       <r>   36.0073    0.0000 </r>
       <r>   36.5792    0.0000 </r>
       <r>   36.5792    0.0000 </r>
       <r>   37.7265    0.0000 </r>
       <r>   37.7265    0.0000 </r>
       <r>   37.7295    0.0000 </r>
       <r>   38.8902    0.0000 </r>
       <r>   38.8902    0.0000 </r>
       <r>   39.1439    0.0000 </r>
       <r>   39.4710    0.0000 </r>
       <r>   40.2931    0.0000 </r>
       <r>   40.5495    0.0000 </r>
       <r>   40.7265    0.0000 </r>
       <r>   40.7800    0.0000 </r>
       <r>   40.7800    0.0000 </r>
       <r>   40.9642    0.0000 </r>
       <r>   41.3240    0.0000 </r>
       <r>   41.4303    0.0000 </r>
       <r>   41.8540    0.0000 </r>
       <r>   41.8540    0.0000 </r>
       <r>   41.8748    0.0000 </r>
       <r>   42.1692    0.0000 </r>
       <r>   42.5340    0.0000 </r>
       <r>   42.7780    0.0000 </r>
       <r>   42.7780    0.0000 </r>
       <r>   43.0798    0.0000 </r>
       <r>   43.0915    0.0000 </r>
       <r>   43.0915    0.0000 </r>
       <r>   43.3363    0.0000 </r>
       <r>   43.3363    0.0000 </r>
       <r>   43.5766    0.0000 </r>
       <r>   43.7770    0.0000 </r>
       <r>   44.1481    0.0000 </r>
       <r>   44.1481    0.0000 </r>
       <r>   44.2954    0.0000 </r>
       <r>   44.5953    0.0000 </r>
       <r>   44.5953    0.0000 </r>
       <r>   44.9291    0.0000 </r>
       <r>   45.6673    0.0000 </r>
      </set>
      <set comment="kpoint 7">
       <r>   -6.3677    1.0000 </r>
       <r>   -4.6810    1.0000 </r>
       <r>   -4.6810    1.0000 </r>
       <r>   -3.3396    1.0000 </r>
       <r>   -1.5006    1.0000 </r>
       <r>   -1.5006    1.0000 </r>
       <r>    0.0101    1.0000 </r>
       <r>    1.1160    1.0000 </r>
       <r>    1.1160    1.0000 </r>
       <r>    2.3159    1.0000 </r>
       <r>    2.4221    1.0000 </r>
       <r>    2.8896    1.0000 </r>
       <r>    2.8896    1.0000 </r>
       <r>    3.8995    1.0000 </r>
       <r>    5.6821    0.0000 </r>
       <r>    5.6821    0.0000 </r>
       <r>    6.2101    0.0000 </r>
       <r>    6.5894    0.0000 </r>
       <r>    6.5894    0.0000 </r>
       <r>    8.8008    0.0000 </r>
       <r>    8.8008    0.0000 </r>
       <r>    8.9242    0.0000 </r>
       <r>    9.8273    0.0000 </r>
       <r>    9.9435    0.0000 </r>
       <r>    9.9435    0.0000 </r>
       <r>   10.3316    0.0000 </r>
       <r>   10.3316    0.0000 </r>
       <r>   10.3584    0.0000 </r>
       <r>   11.8563    0.0000 </r>
       <r>   11.8563    0.0000 </r>
       <r>   12.7561    0.0000 </r>
       <r>   13.3301    0.0000 </r>
       <r>   13.3301    0.0000 </r>
       <r>   14.0560    0.0000 </r>
       <r>   14.2511    0.0000 </r>
       <r>   15.2167    0.0000 </r>
       <r>   15.4732    0.0000 </r>
       <r>   15.4732    0.0000 </r>
       <r>   15.7942    0.0000 </r>
       <r>   15.7942    0.0000 </r>
       <r>   16.0250    0.0000 </r>
       <r>   17.3188    0.0000 </r>
       <r>   17.3251    0.0000 </r>
       <r>   17.5479    0.0000 </r>
       <r>   17.5479    0.0000 </r>
       <r>   17.9795    0.0000 </r>
       <r>   19.0463    0.0000 </r>
       <r>   19.0463    0.0000 </r>
       <r>   19.4739    0.0000 </r>
       <r>   19.4739    0.0000 </r>
       <r>   19.6855    0.0000 </r>
       <r>   20.4023    0.0000 </r>
       <r>   20.4023    0.0000 </r>
       <r>   22.1769    0.0000 </r>
       <r>   22.1769    0.0000 </r>
       <r>   22.4531    0.0000 </r>
       <r>   22.5056    0.0000 </r>
       <r>   22.7024    0.0000 </r>
       <r>   22.7024    0.0000 </r>
       <r>   23.2116    0.0000 </r>
       <r>   23.4840    0.0000 </r>
       <r>   23.4840    0.0000 </r>
       <r>   23.8730    0.0000 </r>
       <r>   24.0262    0.0000 </r>
       <r>   24.0262    0.0000 </r>
       <r>   24.4168    0.0000 </r>
       <r>   24.7586    0.0000 </r>
       <r>   25.0694    0.0000 </r>
       <r>   25.0694    0.0000 </r>
       <r>   26.3488    0.0000 </r>
       <r>   26.3488    0.0000 </r>
       <r>   26.3868    0.0000 </r>
       <r>   26.7787    0.0000 </r>
       <r>   27.0116    0.0000 </r>
       <r>   27.0116    0.0000 </r>
       <r>   27.6666    0.0000 </r>
       <r>   27.6666    0.0000 </r>
       <r>   29.2567    0.0000 </r>
       <r>   29.2567    0.0000 </r>
       <r>   29.2625    0.0000 </r>
       <r>   29.9470    0.0000 </r>
       <r>   29.9470    0.0000 </r>
       <r>   30.0057    0.0000 </r>
       <r>   30.1521    0.0000 </r>
       <r>   30.5912    0.0000 </r>
       <r>   30.5912    0.0000 </r>
       <r>   31.6759    0.0000 </r>
       <r>   32.2771    0.0000 </r>
       <r>   32.2771    0.0000 </r>
       <r>   32.6000    0.0000 </r>
       <r>   32.8072    0.0000 </r>
       <r>   32.8072    0.0000 </r>
       <r>   33.5861    0.0000 </r>
       <r>   33.5861    0.0000 </r>
       <r>   33.7260    0.0000 </r>
       <r>   33.8400    0.0000 </r>
       <r>   34.2022    0.0000 </r>
       <r>   34.5190    0.0000 </r>
       <r>   34.6478    0.0000 </r>
       <r>   34.6478    0.0000 </r>
       <r>   34.9161    0.0000 </r>
       <r>   34.9161    0.0000 </r>
       <r>   36.0636    0.0000 </r>
       <r>   36.0636    0.0000 </r>
       <r>   36.3973    0.0000 </r>
       <r>   36.4108    0.0000 </r>
       <r>   36.4121    0.0000 </r>
       <r>   36.4121    0.0000 </r>
       <r>   37.3389    0.0000 </r>
       <r>   37.3714    0.0000 </r>
       <r>   37.3714    0.0000 </r>
       <r>   38.1886    0.0000 </r>
       <r>   38.1886    0.0000 </r>
       <r>   38.9451    0.0000 </r>
       <r>   39.2203    0.0000 </r>
       <r>   39.2203    0.0000 </r>
       <r>   39.3343    0.0000 </r>
       <r>   40.2640    0.0000 </r>
       <r>   40.2640    0.0000 </r>
       <r>   40.8141    0.0000 </r>
       <r>   40.8141    0.0000 </r>
       <r>   41.2030    0.0000 </r>
       <r>   41.4385    0.0000 </r>
       <r>   41.4385    0.0000 </r>
       <r>   41.5158    0.0000 </r>
       <r>   41.7126    0.0000 </r>
       <r>   41.8128    0.0000 </r>
       <r>   41.8128    0.0000 </r>
       <r>   42.9081    0.0000 </r>
       <r>   42.9482    0.0000 </r>
       <r>   42.9482    0.0000 </r>
       <r>   43.4646    0.0000 </r>
       <r>   43.6338    0.0000 </r>
       <r>   43.6338    0.0000 </r>
       <r>   44.1868    0.0000 </r>
       <r>   44.7321    0.0000 </r>
       <r>   44.7321    0.0000 </r>
       <r>   44.9705    0.0000 </r>
       <r>   45.2995    0.0000 </r>
       <r>   45.7848    0.0000 </r>
       <r>   45.7848    0.0000 </r>
       <r>   46.9608    0.0000 </r>
       <r>   46.9624    0.0000 </r>
       <r>   47.0381    0.0000 </r>
      </set>
      <set comment="kpoint 8">
       <r>   -5.9130    1.0000 </r>
       <r>   -5.3575    1.0000 </r>
       <r>   -4.5785    1.0000 </r>
       <r>   -3.3420    1.0000 </r>
       <r>   -1.7907    1.0000 </r>
       <r>   -1.1565    1.0000 </r>
       <r>   -0.5563    1.0000 </r>
       <r>    1.0848    1.0000 </r>
       <r>    2.0674    1.0000 </r>
       <r>    2.1521    1.0000 </r>
       <r>    2.3569    1.0000 </r>
       <r>    2.4949    1.0000 </r>
       <r>    2.8494    1.0000 </r>
       <r>    4.5895    0.0000 </r>
       <r>    5.1157    0.0000 </r>
       <r>    5.5461    0.0000 </r>
       <r>    6.8565    0.0000 </r>
       <r>    7.6212    0.0000 </r>
       <r>    7.7977    0.0000 </r>
       <r>    7.9268    0.0000 </r>
       <r>    8.0161    0.0000 </r>
       <r>    8.7407    0.0000 </r>
       <r>    9.7316    0.0000 </r>
       <r>    9.7799    0.0000 </r>
       <r>   10.1459    0.0000 </r>
       <r>   10.2247    0.0000 </r>
       <r>   10.5027    0.0000 </r>
       <r>   10.8780    0.0000 </r>
       <r>   11.9797    0.0000 </r>
       <r>   12.0753    0.0000 </r>
       <r>   12.4136    0.0000 </r>
       <r>   12.7866    0.0000 </r>
       <r>   12.8029    0.0000 </r>
       <r>   13.4060    0.0000 </r>
       <r>   14.1669    0.0000 </r>
       <r>   14.9658    0.0000 </r>
       <r>   15.2322    0.0000 </r>
       <r>   15.2908    0.0000 </r>
       <r>   15.4180    0.0000 </r>
       <r>   15.9110    0.0000 </r>
       <r>   16.0532    0.0000 </r>
       <r>   16.7128    0.0000 </r>
       <r>   16.9554    0.0000 </r>
       <r>   17.2403    0.0000 </r>
       <r>   18.3571    0.0000 </r>
       <r>   18.7170    0.0000 </r>
       <r>   18.8024    0.0000 </r>
       <r>   18.9553    0.0000 </r>
       <r>   18.9908    0.0000 </r>
       <r>   19.1030    0.0000 </r>
       <r>   20.4674    0.0000 </r>
       <r>   20.6501    0.0000 </r>
       <r>   20.7437    0.0000 </r>
       <r>   20.9994    0.0000 </r>
       <r>   21.4926    0.0000 </r>
       <r>   22.2866    0.0000 </r>
       <r>   22.3208    0.0000 </r>
       <r>   22.7340    0.0000 </r>
       <r>   22.8745    0.0000 </r>
       <r>   23.2060    0.0000 </r>
       <r>   23.4710    0.0000 </r>
       <r>   23.6094    0.0000 </r>
       <r>   23.9700    0.0000 </r>
       <r>   24.2915    0.0000 </r>
       <r>   24.4213    0.0000 </r>
       <r>   24.9254    0.0000 </r>
       <r>   25.2201    0.0000 </r>
       <r>   25.9862    0.0000 </r>
       <r>   26.1830    0.0000 </r>
       <r>   26.3049    0.0000 </r>
       <r>   26.6417    0.0000 </r>
       <r>   26.7481    0.0000 </r>
       <r>   27.0226    0.0000 </r>
       <r>   27.5222    0.0000 </r>
       <r>   28.0755    0.0000 </r>
       <r>   28.1209    0.0000 </r>
       <r>   28.3580    0.0000 </r>
       <r>   28.8136    0.0000 </r>
       <r>   29.5744    0.0000 </r>
       <r>   29.6525    0.0000 </r>
       <r>   29.7426    0.0000 </r>
       <r>   30.0741    0.0000 </r>
       <r>   30.4648    0.0000 </r>
       <r>   30.4790    0.0000 </r>
       <r>   30.6600    0.0000 </r>
       <r>   31.0934    0.0000 </r>
       <r>   31.2387    0.0000 </r>
       <r>   31.3033    0.0000 </r>
       <r>   31.9548    0.0000 </r>
       <r>   32.0003    0.0000 </r>
       <r>   32.3138    0.0000 </r>
       <r>   32.6055    0.0000 </r>
       <r>   32.8937    0.0000 </r>
       <r>   33.3680    0.0000 </r>
       <r>   34.0937    0.0000 </r>
       <r>   34.3305    0.0000 </r>
       <r>   34.4294    0.0000 </r>
       <r>   34.7866    0.0000 </r>
       <r>   34.8666    0.0000 </r>
       <r>   35.1012    0.0000 </r>
       <r>   35.1494    0.0000 </r>
       <r>   35.3582    0.0000 </r>
       <r>   35.5462    0.0000 </r>
       <r>   35.7874    0.0000 </r>
       <r>   36.1621    0.0000 </r>
       <r>   36.3176    0.0000 </r>
       <r>   36.4397    0.0000 </r>
       <r>   36.8638    0.0000 </r>
       <r>   36.9468    0.0000 </r>
       <r>   37.0247    0.0000 </r>
       <r>   37.2702    0.0000 </r>
       <r>   37.4614    0.0000 </r>
       <r>   37.5870    0.0000 </r>
       <r>   37.6942    0.0000 </r>
       <r>   38.0797    0.0000 </r>
       <r>   38.5201    0.0000 </r>
       <r>   39.1542    0.0000 </r>
       <r>   39.6046    0.0000 </r>
       <r>   39.7943    0.0000 </r>
       <r>   40.0807    0.0000 </r>
       <r>   40.1814    0.0000 </r>
       <r>   40.5682    0.0000 </r>
       <r>   41.0713    0.0000 </r>
       <r>   41.4535    0.0000 </r>
       <r>   41.5055    0.0000 </r>
       <r>   41.6354    0.0000 </r>
       <r>   41.7035    0.0000 </r>
       <r>   42.2206    0.0000 </r>
       <r>   42.2973    0.0000 </r>
       <r>   42.8084    0.0000 </r>
       <r>   43.2267    0.0000 </r>
       <r>   43.2910    0.0000 </r>
       <r>   43.6498    0.0000 </r>
       <r>   43.7819    0.0000 </r>
       <r>   44.0868    0.0000 </r>
       <r>   44.4218    0.0000 </r>
       <r>   44.8777    0.0000 </r>
       <r>   45.0471    0.0000 </r>
       <r>   45.4512    0.0000 </r>
       <r>   45.8431    0.0000 </r>
       <r>   46.0318    0.0000 </r>
       <r>   46.3786    0.0000 </r>
       <r>   47.0624    0.0000 </r>
       <r>   47.0655    0.0000 </r>
      </set>
      <set comment="kpoint 9">
       <r>   -5.3555    1.0000 </r>
       <r>   -5.2277    1.0000 </r>
       <r>   -5.2277    1.0000 </r>
       <r>   -3.4986    1.0000 </r>
       <r>   -1.5702    1.0000 </r>
       <r>   -1.3635    1.0000 </r>
       <r>   -1.3635    1.0000 </r>
       <r>    1.5660    1.0000 </r>
       <r>    1.8764    1.0000 </r>
       <r>    2.3544    1.0000 </r>
       <r>    2.3544    1.0000 </r>
       <r>    2.9498    1.0000 </r>
       <r>    3.3077    1.0000 </r>
       <r>    4.9635    0.0000 </r>
       <r>    5.6642    0.0000 </r>
       <r>    5.6642    0.0000 </r>
       <r>    6.8718    0.0000 </r>
       <r>    6.8718    0.0000 </r>
       <r>    7.5554    0.0000 </r>
       <r>    8.2268    0.0000 </r>
       <r>    8.2268    0.0000 </r>
       <r>    8.3130    0.0000 </r>
       <r>    8.9024    0.0000 </r>
       <r>    9.4621    0.0000 </r>
       <r>    9.4896    0.0000 </r>
       <r>   10.5605    0.0000 </r>
       <r>   10.5605    0.0000 </r>
       <r>   11.0597    0.0000 </r>
       <r>   12.4848    0.0000 </r>
       <r>   12.5772    0.0000 </r>
       <r>   12.5901    0.0000 </r>
       <r>   12.5901    0.0000 </r>
       <r>   13.6783    0.0000 </r>
       <r>   14.0694    0.0000 </r>
       <r>   14.0694    0.0000 </r>
       <r>   14.5001    0.0000 </r>
       <r>   14.7428    0.0000 </r>
       <r>   15.2100    0.0000 </r>
       <r>   15.2100    0.0000 </r>
       <r>   15.3132    0.0000 </r>
       <r>   15.9756    0.0000 </r>
       <r>   16.2751    0.0000 </r>
       <r>   16.2751    0.0000 </r>
       <r>   17.1665    0.0000 </r>
       <r>   18.3798    0.0000 </r>
       <r>   18.3798    0.0000 </r>
       <r>   18.6372    0.0000 </r>
       <r>   18.7521    0.0000 </r>
       <r>   19.0665    0.0000 </r>
       <r>   19.2176    0.0000 </r>
       <r>   19.2176    0.0000 </r>
       <r>   19.6122    0.0000 </r>
       <r>   20.6357    0.0000 </r>
       <r>   21.7551    0.0000 </r>
       <r>   21.7551    0.0000 </r>
       <r>   21.9814    0.0000 </r>
       <r>   22.4592    0.0000 </r>
       <r>   22.7183    0.0000 </r>
       <r>   22.7183    0.0000 </r>
       <r>   22.8308    0.0000 </r>
       <r>   24.0121    0.0000 </r>
       <r>   24.0364    0.0000 </r>
       <r>   24.0364    0.0000 </r>
       <r>   25.3147    0.0000 </r>
       <r>   25.6918    0.0000 </r>
       <r>   25.7855    0.0000 </r>
       <r>   25.9860    0.0000 </r>
       <r>   25.9860    0.0000 </r>
       <r>   26.8917    0.0000 </r>
       <r>   26.8917    0.0000 </r>
       <r>   27.1927    0.0000 </r>
       <r>   27.1941    0.0000 </r>
       <r>   27.6076    0.0000 </r>
       <r>   27.7939    0.0000 </r>
       <r>   27.7939    0.0000 </r>
       <r>   28.6748    0.0000 </r>
       <r>   28.9536    0.0000 </r>
       <r>   28.9536    0.0000 </r>
       <r>   29.1826    0.0000 </r>
       <r>   29.2271    0.0000 </r>
       <r>   29.8927    0.0000 </r>
       <r>   30.3757    0.0000 </r>
       <r>   30.3757    0.0000 </r>
       <r>   30.5657    0.0000 </r>
       <r>   30.8481    0.0000 </r>
       <r>   30.8481    0.0000 </r>
       <r>   30.9785    0.0000 </r>
       <r>   31.3083    0.0000 </r>
       <r>   32.2611    0.0000 </r>
       <r>   32.2611    0.0000 </r>
       <r>   32.3426    0.0000 </r>
       <r>   32.4583    0.0000 </r>
       <r>   33.1853    0.0000 </r>
       <r>   33.4029    0.0000 </r>
       <r>   33.4098    0.0000 </r>
       <r>   33.4098    0.0000 </r>
       <r>   33.8609    0.0000 </r>
       <r>   33.8609    0.0000 </r>
       <r>   33.8700    0.0000 </r>
       <r>   34.3020    0.0000 </r>
       <r>   34.8046    0.0000 </r>
       <r>   35.3825    0.0000 </r>
       <r>   35.3825    0.0000 </r>
       <r>   35.5350    0.0000 </r>
       <r>   36.2282    0.0000 </r>
       <r>   36.2964    0.0000 </r>
       <r>   36.2964    0.0000 </r>
       <r>   36.4801    0.0000 </r>
       <r>   37.0781    0.0000 </r>
       <r>   37.4841    0.0000 </r>
       <r>   37.4841    0.0000 </r>
       <r>   37.5546    0.0000 </r>
       <r>   37.7374    0.0000 </r>
       <r>   38.6740    0.0000 </r>
       <r>   38.6740    0.0000 </r>
       <r>   38.6906    0.0000 </r>
       <r>   39.3591    0.0000 </r>
       <r>   39.3591    0.0000 </r>
       <r>   39.3973    0.0000 </r>
       <r>   39.4338    0.0000 </r>
       <r>   39.8952    0.0000 </r>
       <r>   39.8952    0.0000 </r>
       <r>   40.2080    0.0000 </r>
       <r>   40.8693    0.0000 </r>
       <r>   41.0189    0.0000 </r>
       <r>   41.5691    0.0000 </r>
       <r>   41.5691    0.0000 </r>
       <r>   41.6976    0.0000 </r>
       <r>   42.3502    0.0000 </r>
       <r>   42.8555    0.0000 </r>
       <r>   43.3857    0.0000 </r>
       <r>   43.4042    0.0000 </r>
       <r>   43.4042    0.0000 </r>
       <r>   43.6521    0.0000 </r>
       <r>   44.2825    0.0000 </r>
       <r>   44.2825    0.0000 </r>
       <r>   44.5852    0.0000 </r>
       <r>   45.3692    0.0000 </r>
       <r>   45.3692    0.0000 </r>
       <r>   45.5562    0.0000 </r>
       <r>   45.7421    0.0000 </r>
       <r>   45.7939    0.0000 </r>
       <r>   45.7940    0.0000 </r>
       <r>   46.3036    0.0000 </r>
      </set>
      <set comment="kpoint 10">
       <r>   -5.1219    1.0000 </r>
       <r>   -5.1219    1.0000 </r>
       <r>   -5.1219    1.0000 </r>
       <r>   -3.7825    1.0000 </r>
       <r>   -1.8535    1.0000 </r>
       <r>   -1.8535    1.0000 </r>
       <r>   -1.8535    1.0000 </r>
       <r>    1.0780    1.0000 </r>
       <r>    3.0365    1.0000 </r>
       <r>    3.0365    1.0000 </r>
       <r>    3.3040    1.0000 </r>
       <r>    3.3040    1.0000 </r>
       <r>    3.3040    1.0000 </r>
       <r>    5.9799    0.0000 </r>
       <r>    5.9799    0.0000 </r>
       <r>    5.9799    0.0000 </r>
       <r>    6.2648    0.0000 </r>
       <r>    6.2648    0.0000 </r>
       <r>    6.2648    0.0000 </r>
       <r>    7.8149    0.0000 </r>
       <r>    7.8149    0.0000 </r>
       <r>    7.8149    0.0000 </r>
       <r>    9.1480    0.0000 </r>
       <r>    9.1480    0.0000 </r>
       <r>    9.9873    0.0000 </r>
       <r>    9.9873    0.0000 </r>
       <r>    9.9873    0.0000 </r>
       <r>   10.0919    0.0000 </r>
       <r>   12.3673    0.0000 </r>
       <r>   13.1538    0.0000 </r>
       <r>   13.1538    0.0000 </r>
       <r>   13.1538    0.0000 </r>
       <r>   15.0612    0.0000 </r>
       <r>   15.0612    0.0000 </r>
       <r>   15.0612    0.0000 </r>
       <r>   15.2379    0.0000 </r>
       <r>   15.2379    0.0000 </r>
       <r>   15.6290    0.0000 </r>
       <r>   15.6290    0.0000 </r>
       <r>   15.6290    0.0000 </r>
       <r>   16.3374    0.0000 </r>
       <r>   16.6343    0.0000 </r>
       <r>   16.6343    0.0000 </r>
       <r>   16.6343    0.0000 </r>
       <r>   16.7328    0.0000 </r>
       <r>   16.7328    0.0000 </r>
       <r>   16.7328    0.0000 </r>
       <r>   17.8153    0.0000 </r>
       <r>   17.8153    0.0000 </r>
       <r>   17.8153    0.0000 </r>
       <r>   18.3787    0.0000 </r>
       <r>   18.3787    0.0000 </r>
       <r>   19.6625    0.0000 </r>
       <r>   21.1149    0.0000 </r>
       <r>   21.1149    0.0000 </r>
       <r>   21.1149    0.0000 </r>
       <r>   24.5736    0.0000 </r>
       <r>   25.1708    0.0000 </r>
       <r>   25.1708    0.0000 </r>
       <r>   25.1708    0.0000 </r>
       <r>   25.4425    0.0000 </r>
       <r>   25.4425    0.0000 </r>
       <r>   25.4425    0.0000 </r>
       <r>   25.9289    0.0000 </r>
       <r>   25.9984    0.0000 </r>
       <r>   25.9984    0.0000 </r>
       <r>   26.2510    0.0000 </r>
       <r>   26.2510    0.0000 </r>
       <r>   26.2510    0.0000 </r>
       <r>   26.6310    0.0000 </r>
       <r>   26.6310    0.0000 </r>
       <r>   26.6310    0.0000 </r>
       <r>   26.9321    0.0000 </r>
       <r>   26.9321    0.0000 </r>
       <r>   26.9321    0.0000 </r>
       <r>   28.3491    0.0000 </r>
       <r>   28.3491    0.0000 </r>
       <r>   28.3491    0.0000 </r>
       <r>   30.2458    0.0000 </r>
       <r>   30.2458    0.0000 </r>
       <r>   30.2599    0.0000 </r>
       <r>   30.5268    0.0000 </r>
       <r>   30.5268    0.0000 </r>
       <r>   30.5268    0.0000 </r>
       <r>   31.5881    0.0000 </r>
       <r>   31.5881    0.0000 </r>
       <r>   31.5881    0.0000 </r>
       <r>   31.7169    0.0000 </r>
       <r>   31.7169    0.0000 </r>
       <r>   32.2520    0.0000 </r>
       <r>   32.2520    0.0000 </r>
       <r>   32.2520    0.0000 </r>
       <r>   32.7658    0.0000 </r>
       <r>   32.7658    0.0000 </r>
       <r>   32.7658    0.0000 </r>
       <r>   33.1834    0.0000 </r>
       <r>   33.1834    0.0000 </r>
       <r>   33.1834    0.0000 </r>
       <r>   33.9291    0.0000 </r>
       <r>   33.9291    0.0000 </r>
       <r>   34.2025    0.0000 </r>
       <r>   35.2998    0.0000 </r>
       <r>   36.6173    0.0000 </r>
       <r>   36.6173    0.0000 </r>
       <r>   36.6173    0.0000 </r>
       <r>   37.1231    0.0000 </r>
       <r>   37.1231    0.0000 </r>
       <r>   37.1231    0.0000 </r>
       <r>   37.2510    0.0000 </r>
       <r>   37.2510    0.0000 </r>
       <r>   37.2510    0.0000 </r>
       <r>   37.5921    0.0000 </r>
       <r>   37.5921    0.0000 </r>
       <r>   37.9783    0.0000 </r>
       <r>   37.9783    0.0000 </r>
       <r>   37.9783    0.0000 </r>
       <r>   38.3232    0.0000 </r>
       <r>   38.3232    0.0000 </r>
       <r>   38.3232    0.0000 </r>
       <r>   38.7770    0.0000 </r>
       <r>   39.4173    0.0000 </r>
       <r>   39.4173    0.0000 </r>
       <r>   39.4173    0.0000 </r>
       <r>   41.4433    0.0000 </r>
       <r>   41.4433    0.0000 </r>
       <r>   41.4527    0.0000 </r>
       <r>   41.7431    0.0000 </r>
       <r>   41.7431    0.0000 </r>
       <r>   41.7431    0.0000 </r>
       <r>   41.8888    0.0000 </r>
       <r>   41.9787    0.0000 </r>
       <r>   41.9787    0.0000 </r>
       <r>   41.9787    0.0000 </r>
       <r>   42.5257    0.0000 </r>
       <r>   42.5257    0.0000 </r>
       <r>   42.5257    0.0000 </r>
       <r>   45.3358    0.0000 </r>
       <r>   45.3358    0.0000 </r>
       <r>   46.0256    0.0000 </r>
       <r>   46.0256    0.0000 </r>
       <r>   46.0256    0.0000 </r>
       <r>   47.5086    0.0000 </r>
       <r>   47.6081    0.0000 </r>
       <r>   47.6085    0.0000 </r>
      </set>
     </set>
     <set comment="spin 2">
      <set comment="kpoint 1">
       <r>   -7.0649    1.0000 </r>
       <r>   -3.3749    1.0000 </r>
       <r>   -3.3749    1.0000 </r>
       <r>   -3.0040    1.0000 </r>
       <r>   -3.0040    1.0000 </r>
       <r>   -3.0040    1.0000 </r>
       <r>    1.5689    1.0000 </r>
       <r>    1.6785    1.0000 </r>
       <r>    1.6785    1.0000 </r>
       <r>    1.6785    1.0000 </r>
       <r>    2.6749    1.0000 </r>
       <r>    2.6749    1.0000 </r>
       <r>    2.6749    1.0000 </r>
       <r>    5.6850    0.0000 </r>
       <r>    5.6850    0.0000 </r>
       <r>    5.6850    0.0000 </r>
       <r>    5.9453    0.0000 </r>
       <r>    5.9542    0.0000 </r>
       <r>    5.9542    0.0000 </r>
       <r>    6.1397    0.0000 </r>
       <r>    6.1397    0.0000 </r>
       <r>    6.1397    0.0000 </r>
       <r>    9.0683    0.0000 </r>
       <r>    9.0683    0.0000 </r>
       <r>    9.0683    0.0000 </r>
       <r>   10.6693    0.0000 </r>
[...]
        <r>  0.0030  0.0000  0.0002  0.0003  0.0000  0.0000  0.0000  0.0000  0.0000 </r>
       </set>
       <set comment="band 117">
        <r>  0.0000  0.0012  0.0000  0.0011  0.0000  0.0000  0.0000  0.0000  0.0000 </r>
        <r>  0.0000  0.0118  0.0000  0.0113  0.0000  0.0000  0.0000  0.0000  0.0000 </r>
        <r>  0.0000  0.0006  0.0029  0.0011  0.0000  0.0000  0.0000  0.0000  0.0000 </r>
        <r>  0.0000  0.0000  0.0118  0.0022  0.0000  0.0000  0.0000  0.0000  0.0000 </r>
        <r>  0.0000  0.0012  0.0029  0.0006  0.0000  0.0000  0.0000  0.0000  0.0000 </r>
        <r>  0.0000  0.0022  0.0113  0.0000  0.0000  0.0000  0.0000  0.0000  0.0000 </r>
        <r>  0.0000  0.0006  0.0000  0.0006  0.0000  0.0000  0.0000  0.0000  0.0000 </r>
       </set>
       <set comment="band 118">
        <r>  0.0000  0.0013  0.0030  0.0004  0.0000  0.0000  0.0000  0.0000  0.0000 </r>
        <r>  0.0000  0.0119  0.0000  0.0120  0.0000  0.0000  0.0000  0.0000  0.0000 </r>
        <r>  0.0000  0.0004  0.0001  0.0004  0.0000  0.0000  0.0000  0.0000  0.0000 </r>
        <r>  0.0000  0.0000  0.0119  0.0015  0.0000  0.0000  0.0000  0.0000  0.0000 </r>
        <r>  0.0000  0.0013  0.0001  0.0014  0.0000  0.0000  0.0000  0.0000  0.0000 </r>
        <r>  0.0000  0.0015  0.0120  0.0000  0.0000  0.0000  0.0000  0.0000  0.0000 </r>
        <r>  0.0000  0.0004  0.0030  0.0014  0.0000  0.0000  0.0000  0.0000  0.0000 </r>
       </set>
       <set comment="band 119">
        <r>  0.0000  0.0008  0.0002  0.0018  0.0000  0.0000  0.0000  0.0000  0.0000 </r>
        <r>  0.0000  0.0017  0.0000  0.0020  0.0000  0.0000  0.0000  0.0000  0.0000 </r>
        <r>  0.0000  0.0022  0.0002  0.0018  0.0000  0.0000  0.0000  0.0000  0.0000 </r>
        <r>  0.0000  0.0000  0.0017  0.0217  0.0000  0.0000  0.0000  0.0000  0.0000 </r>
        <r>  0.0000  0.0008  0.0002  0.0012  0.0000  0.0000  0.0000  0.0000  0.0000 </r>
        <r>  0.0000  0.0217  0.0020  0.0000  0.0000  0.0000  0.0000  0.0000  0.0000 </r>
        <r>  0.0000  0.0022  0.0002  0.0012  0.0000  0.0000  0.0000  0.0000  0.0000 </r>
       </set>
       <set comment="band 120">
        <r>  0.0164  0.0001  0.0001  0.0001  0.0000  0.0000  0.0000  0.0000  0.0000 </r>
        <r>  0.0000  0.0000  0.0001  0.0000  0.0000  0.0000  0.0000  0.0000  0.0000 </r>
        <r>  0.0164  0.0001  0.0001  0.0001  0.0000  0.0000  0.0000  0.0000  0.0000 </r>
        <r>  0.0000  0.0001  0.0000  0.0000  0.0000  0.0000  0.0000  0.0000  0.0000 </r>
        <r>  0.0164  0.0001  0.0001  0.0001  0.0000  0.0000  0.0000  0.0000  0.0000 </r>
        <r>  0.0000  0.0000  0.0000  0.0001  0.0000  0.0000  0.0000  0.0000  0.0000 </r>
        <r>  0.0164  0.0001  0.0001  0.0001  0.0000  0.0000  0.0000  0.0000  0.0000 </r>
       </set>
       <set comment="band 121">
        <r>  0.0227  0.0018  0.0018  0.0009  0.0000  0.0000  0.0000  0.0000  0.0000 </r>
        <r>  0.0014  0.0079  0.0000  0.0008  0.0000  0.0000  0.0000  0.0000  0.0000 </r>
        <r>  0.0073  0.0009  0.0006  0.0004  0.0000  0.0000  0.0000  0.0000  0.0000 </r>
        <r>  0.0005  0.0000  0.0079  0.0020  0.0000  0.0000  0.0000  0.0000  0.0000 </r>
        <r>  0.0080  0.0013  0.0006  0.0001  0.0000  0.0000  0.0000  0.0000  0.0000 </r>
        <r>  0.0054  0.0020  0.0008  0.0000  0.0000  0.0000  0.0000  0.0000  0.0000 </r>
        <r>  0.0137  0.0011  0.0016  0.0003  0.0000  0.0000  0.0000  0.0000  0.0000 </r>
       </set>
       <set comment="band 122">
        <r>  0.0124  0.0011  0.0004  0.0013  0.0000  0.0000  0.0000  0.0000  0.0000 </r>
        <r>  0.0056  0.0023  0.0000  0.0002  0.0000  0.0000  0.0000  0.0000  0.0000 </r>
        <r>  0.0188  0.0018  0.0005  0.0015  0.0000  0.0000  0.0000  0.0000  0.0000 </r>
        <r>  0.0001  0.0000  0.0023  0.0083  0.0000  0.0000  0.0000  0.0000  0.0000 </r>
        <r>  0.0066  0.0009  0.0002  0.0007  0.0000  0.0000  0.0000  0.0000  0.0000 </r>
        <r>  0.0015  0.0083  0.0002  0.0000  0.0000  0.0000  0.0000  0.0000  0.0000 </r>
        <r>  0.0140  0.0017  0.0004  0.0009  0.0000  0.0000  0.0000  0.0000  0.0000 </r>
       </set>
       <set comment="band 123">
        <r>  0.0038  0.0000  0.0006  0.0007  0.0000  0.0000  0.0000  0.0000  0.0000 </r>
        <r>  0.0003  0.0006  0.0000  0.0098  0.0000  0.0000  0.0000  0.0000  0.0000 </r>
        <r>  0.0127  0.0001  0.0018  0.0009  0.0000  0.0000  0.0000  0.0000  0.0000 </r>
        <r>  0.0066  0.0000  0.0006  0.0004  0.0000  0.0000  0.0000  0.0000  0.0000 </r>
        <r>  0.0243  0.0006  0.0021  0.0020  0.0000  0.0000  0.0000  0.0000  0.0000 </r>
        <r>  0.0004  0.0004  0.0098  0.0000  0.0000  0.0000  0.0000  0.0000  0.0000 </r>
        <r>  0.0111  0.0001  0.0009  0.0016  0.0000  0.0000  0.0000  0.0000  0.0000 </r>
       </set>
       <set comment="band 124">
        <r>  0.0000  0.0034  0.0076  0.0010  0.0000  0.0000  0.0000  0.0000  0.0000 </r>
        <r>  0.0000  0.0000  0.0074  0.0000  0.0000  0.0000  0.0000  0.0000  0.0000 </r>
        <r>  0.0000  0.0034  0.0076  0.0010  0.0000  0.0000  0.0000  0.0000  0.0000 </r>
        <r>  0.0000  0.0034  0.0000  0.0000  0.0000  0.0000  0.0000  0.0000  0.0000 </r>
        <r>  0.0000  0.0034  0.0076  0.0010  0.0000  0.0000  0.0000  0.0000  0.0000 </r>
        <r>  0.0000  0.0000  0.0000  0.0010  0.0000  0.0000  0.0000  0.0000  0.0000 </r>
        <r>  0.0000  0.0034  0.0076  0.0010  0.0000  0.0000  0.0000  0.0000  0.0000 </r>
       </set>
       <set comment="band 125">
        <r>  0.0000  0.0046  0.0005  0.0070  0.0000  0.0000  0.0000  0.0000  0.0000 </r>
        <r>  0.0000  0.0000  0.0005  0.0000  0.0000  0.0000  0.0000  0.0000  0.0000 </r>
        <r>  0.0000  0.0046  0.0005  0.0070  0.0000  0.0000  0.0000  0.0000  0.0000 </r>
        <r>  0.0000  0.0045  0.0000  0.0000  0.0000  0.0000  0.0000  0.0000  0.0000 </r>
        <r>  0.0000  0.0046  0.0005  0.0070  0.0000  0.0000  0.0000  0.0000  0.0000 </r>
        <r>  0.0000  0.0000  0.0000  0.0068  0.0000  0.0000  0.0000  0.0000  0.0000 </r>
        <r>  0.0000  0.0046  0.0005  0.0070  0.0000  0.0000  0.0000  0.0000  0.0000 </r>
       </set>
       <set comment="band 126">
        <r>  0.0000  0.0000  0.0000  0.0000  0.0000  0.0000  0.0000  0.0000  0.0000 </r>
        <r>  0.0000  0.0000  0.0000  0.0000  0.0000  0.0000  0.0000  0.0000  0.0000 </r>
        <r>  0.0000  0.0000  0.0000  0.0000  0.0000  0.0000  0.0000  0.0000  0.0000 </r>
        <r>  0.0000  0.0000  0.0000  0.0000  0.0000  0.0000  0.0000  0.0000  0.0000 </r>
        <r>  0.0000  0.0000  0.0000  0.0000  0.0000  0.0000  0.0000  0.0000  0.0000 </r>
        <r>  0.0000  0.0000  0.0000  0.0000  0.0000  0.0000  0.0000  0.0000  0.0000 </r>
        <r>  0.0000  0.0000  0.0000  0.0000  0.0000  0.0000  0.0000  0.0000  0.0000 </r>
       </set>
       <set comment="band 127">
        <r>  0.0007  0.0000  0.0008  0.0029  0.0000  0.0000  0.0000  0.0000  0.0000 </r>
        <r>  0.0068  0.0045  0.0000  0.0004  0.0000  0.0000  0.0000  0.0000  0.0000 </r>
        <r>  0.0003  0.0007  0.0010  0.0039  0.0000  0.0000  0.0000  0.0000  0.0000 </r>
        <r>  0.0025  0.0000  0.0045  0.0012  0.0000  0.0000  0.0000  0.0000  0.0000 </r>
        <r>  0.0003  0.0010  0.0010  0.0036  0.0000  0.0000  0.0000  0.0000  0.0000 </r>
        <r>  0.0253  0.0012  0.0004  0.0000  0.0000  0.0000  0.0000  0.0000  0.0000 </r>
        <r>  0.0005  0.0002  0.0014  0.0031  0.0000  0.0000  0.0000  0.0000  0.0000 </r>
       </set>
       <set comment="band 128">
        <r>  0.0004  0.0000  0.0036  0.0013  0.0000  0.0000  0.0000  0.0000  0.0000 </r>
        <r>  0.0265  0.0013  0.0000  0.0001  0.0000  0.0000  0.0000  0.0000  0.0000 </r>
        <r>  0.0006  0.0001  0.0031  0.0010  0.0000  0.0000  0.0000  0.0000  0.0000 </r>
        <r>  0.0006  0.0000  0.0013  0.0047  0.0000  0.0000  0.0000  0.0000  0.0000 </r>
        <r>  0.0002  0.0004  0.0039  0.0013  0.0000  0.0000  0.0000  0.0000  0.0000 </r>
        <r>  0.0075  0.0047  0.0001  0.0000  0.0000  0.0000  0.0000  0.0000  0.0000 </r>
        <r>  0.0005  0.0004  0.0035  0.0009  0.0000  0.0000  0.0000  0.0000  0.0000 </r>
       </set>
       <set comment="band 129">
        <r>  0.0001  0.0049  0.0005  0.0006  0.0000  0.0000  0.0000  0.0000  0.0000 </r>
        <r>  0.0013  0.0003  0.0000  0.0056  0.0000  0.0000  0.0000  0.0000  0.0000 </r>
        <r>  0.0004  0.0041  0.0008  0.0000  0.0000  0.0000  0.0000  0.0000  0.0000 </r>
        <r>  0.0315  0.0000  0.0003  0.0002  0.0000  0.0000  0.0000  0.0000  0.0000 </r>
        <r>  0.0008  0.0035  0.0000  0.0000  0.0000  0.0000  0.0000  0.0000  0.0000 </r>
        <r>  0.0018  0.0002  0.0056  0.0000  0.0000  0.0000  0.0000  0.0000  0.0000 </r>
        <r>  0.0004  0.0042  0.0000  0.0009  0.0000  0.0000  0.0000  0.0000  0.0000 </r>
       </set>
       <set comment="band 130">
        <r>  0.0077  0.0016  0.0016  0.0016  0.0000  0.0000  0.0000  0.0000  0.0000 </r>
        <r>  0.0000  0.0000  0.0030  0.0000  0.0000  0.0000  0.0000  0.0000  0.0000 </r>
        <r>  0.0077  0.0016  0.0016  0.0016  0.0000  0.0000  0.0000  0.0000  0.0000 </r>
        <r>  0.0000  0.0030  0.0000  0.0000  0.0000  0.0000  0.0000  0.0000  0.0000 </r>
        <r>  0.0077  0.0016  0.0016  0.0016  0.0000  0.0000  0.0000  0.0000  0.0000 </r>
        <r>  0.0000  0.0000  0.0000  0.0030  0.0000  0.0000  0.0000  0.0000  0.0000 </r>
        <r>  0.0077  0.0016  0.0016  0.0016  0.0000  0.0000  0.0000  0.0000  0.0000 </r>
       </set>
       <set comment="band 131">
        <r>  0.0000  0.0004  0.0010  0.0022  0.0000  0.0000  0.0000  0.0000  0.0000 </r>
        <r>  0.0000  0.0000  0.0000  0.0001  0.0000  0.0000  0.0000  0.0000  0.0000 </r>
        <r>  0.0000  0.0014  0.0002  0.0022  0.0000  0.0000  0.0000  0.0000  0.0000 </r>
        <r>  0.0000  0.0000  0.0000  0.0001  0.0000  0.0000  0.0000  0.0000  0.0000 </r>
        <r>  0.0000  0.0004  0.0002  0.0006  0.0000  0.0000  0.0000  0.0000  0.0000 </r>
        <r>  0.0000  0.0001  0.0001  0.0000  0.0000  0.0000  0.0000  0.0000  0.0000 </r>
        <r>  0.0000  0.0014  0.0010  0.0006  0.0000  0.0000  0.0000  0.0000  0.0000 </r>
       </set>
       <set comment="band 132">
        <r>  0.0000  0.0021  0.0011  0.0006  0.0000  0.0000  0.0000  0.0000  0.0000 </r>
        <r>  0.0000  0.0001  0.0000  0.0001  0.0000  0.0000  0.0000  0.0000  0.0000 </r>
        <r>  0.0000  0.0000  0.0009  0.0006  0.0000  0.0000  0.0000  0.0000  0.0000 </r>
        <r>  0.0000  0.0000  0.0001  0.0001  0.0000  0.0000  0.0000  0.0000  0.0000 </r>
        <r>  0.0000  0.0021  0.0009  0.0011  0.0000  0.0000  0.0000  0.0000  0.0000 </r>
        <r>  0.0000  0.0001  0.0001  0.0000  0.0000  0.0000  0.0000  0.0000  0.0000 </r>
        <r>  0.0000  0.0000  0.0011  0.0011  0.0000  0.0000  0.0000  0.0000  0.0000 </r>
       </set>
       <set comment="band 133">
        <r>  0.0000  0.0004  0.0008  0.0002  0.0000  0.0000  0.0000  0.0000  0.0000 </r>
        <r>  0.0000  0.0001  0.0000  0.0001  0.0000  0.0000  0.0000  0.0000  0.0000 </r>
        <r>  0.0000  0.0015  0.0018  0.0002  0.0000  0.0000  0.0000  0.0000  0.0000 </r>
        <r>  0.0000  0.0000  0.0001  0.0000  0.0000  0.0000  0.0000  0.0000  0.0000 </r>
        <r>  0.0000  0.0004  0.0018  0.0012  0.0000  0.0000  0.0000  0.0000  0.0000 </r>
        <r>  0.0000  0.0000  0.0001  0.0000  0.0000  0.0000  0.0000  0.0000  0.0000 </r>
        <r>  0.0000  0.0015  0.0008  0.0012  0.0000  0.0000  0.0000  0.0000  0.0000 </r>
       </set>
       <set comment="band 134">
        <r>  0.0297  0.0000  0.0000  0.0001  0.0000  0.0000  0.0000  0.0000  0.0000 </r>
        <r>  0.0033  0.0000  0.0000  0.0000  0.0000  0.0000  0.0000  0.0000  0.0000 </r>
        <r>  0.0049  0.0001  0.0001  0.0003  0.0000  0.0000  0.0000  0.0000  0.0000 </r>
        <r>  0.0010  0.0000  0.0000  0.0000  0.0000  0.0000  0.0000  0.0000  0.0000 </r>
        <r>  0.0108  0.0002  0.0001  0.0002  0.0000  0.0000  0.0000  0.0000  0.0000 </r>
        <r>  0.0072  0.0000  0.0000  0.0000  0.0000  0.0000  0.0000  0.0000  0.0000 </r>
        <r>  0.0084  0.0000  0.0003  0.0002  0.0000  0.0000  0.0000  0.0000  0.0000 </r>
       </set>
       <set comment="band 135">
        <r>  0.0069  0.0000  0.0003  0.0002  0.0000  0.0000  0.0000  0.0000  0.0000 </r>
        <r>  0.0079  0.0000  0.0000  0.0000  0.0000  0.0000  0.0000  0.0000  0.0000 </r>
        <r>  0.0215  0.0001  0.0001  0.0001  0.0000  0.0000  0.0000  0.0000  0.0000 </r>
        <r>  0.0001  0.0000  0.0000  0.0000  0.0000  0.0000  0.0000  0.0000  0.0000 </r>
        <r>  0.0038  0.0000  0.0003  0.0002  0.0000  0.0000  0.0000  0.0000  0.0000 </r>
        <r>  0.0035  0.0000  0.0000  0.0000  0.0000  0.0000  0.0000  0.0000  0.0000 </r>
        <r>  0.0215  0.0001  0.0001  0.0000  0.0000  0.0000  0.0000  0.0000  0.0000 </r>
       </set>
       <set comment="band 136">
        <r>  0.0036  0.0004  0.0001  0.0001  0.0000  0.0000  0.0000  0.0000  0.0000 </r>
        <r>  0.0004  0.0000  0.0000  0.0000  0.0000  0.0000  0.0000  0.0000  0.0000 </r>
        <r>  0.0139  0.0002  0.0002  0.0000  0.0000  0.0000  0.0000  0.0000  0.0000 </r>
        <r>  0.0104  0.0000  0.0000  0.0000  0.0000  0.0000  0.0000  0.0000  0.0000 </r>
        <r>  0.0258  0.0002  0.0000  0.0000  0.0000  0.0000  0.0000  0.0000  0.0000 </r>
        <r>  0.0008  0.0000  0.0000  0.0000  0.0000  0.0000  0.0000  0.0000  0.0000 </r>
        <r>  0.0104  0.0003  0.0000  0.0002  0.0000  0.0000  0.0000  0.0000  0.0000 </r>
       </set>
       <set comment="band 137">
        <r>  0.0000  0.0004  0.0003  0.0005  0.0000  0.0000  0.0000  0.0000  0.0000 </r>
        <r>  0.0000  0.0000  0.0002  0.0000  0.0000  0.0000  0.0000  0.0000  0.0000 </r>
        <r>  0.0000  0.0004  0.0003  0.0005  0.0000  0.0000  0.0000  0.0000  0.0000 </r>
        <r>  0.0000  0.0004  0.0000  0.0000  0.0000  0.0000  0.0000  0.0000  0.0000 </r>
        <r>  0.0000  0.0004  0.0003  0.0005  0.0000  0.0000  0.0000  0.0000  0.0000 </r>
        <r>  0.0000  0.0000  0.0000  0.0005  0.0000  0.0000  0.0000  0.0000  0.0000 </r>
        <r>  0.0000  0.0004  0.0003  0.0005  0.0000  0.0000  0.0000  0.0000  0.0000 </r>
       </set>
       <set comment="band 138">
        <r>  0.0000  0.0004  0.0006  0.0003  0.0000  0.0000  0.0000  0.0000  0.0000 </r>
        <r>  0.0000  0.0000  0.0005  0.0000  0.0000  0.0000  0.0000  0.0000  0.0000 </r>
        <r>  0.0000  0.0004  0.0006  0.0003  0.0000  0.0000  0.0000  0.0000  0.0000 </r>
        <r>  0.0000  0.0003  0.0000  0.0000  0.0000  0.0000  0.0000  0.0000  0.0000 </r>
        <r>  0.0000  0.0004  0.0006  0.0003  0.0000  0.0000  0.0000  0.0000  0.0000 </r>
        <r>  0.0000  0.0000  0.0000  0.0002  0.0000  0.0000  0.0000  0.0000  0.0000 </r>
        <r>  0.0000  0.0004  0.0006  0.0003  0.0000  0.0000  0.0000  0.0000  0.0000 </r>
       </set>
       <set comment="band 139">
        <r>  0.0000  0.0001  0.0000  0.0000  0.0000  0.0000  0.0000  0.0000  0.0000 </r>
        <r>  0.0000  0.0000  0.0000  0.0000  0.0000  0.0000  0.0000  0.0000  0.0000 </r>
        <r>  0.0000  0.0000  0.0001  0.0000  0.0000  0.0000  0.0000  0.0000  0.0000 </r>
        <r>  0.0000  0.0000  0.0000  0.0000  0.0000  0.0000  0.0000  0.0000  0.0000 </r>
        <r>  0.0000  0.0001  0.0001  0.0000  0.0000  0.0000  0.0000  0.0000  0.0000 </r>
        <r>  0.0000  0.0000  0.0000  0.0000  0.0000  0.0000  0.0000  0.0000  0.0000 </r>
        <r>  0.0000  0.0000  0.0000  0.0000  0.0000  0.0000  0.0000  0.0000  0.0000 </r>
       </set>
       <set comment="band 140">
        <r>  0.0000  0.0001  0.0001  0.0000  0.0000  0.0000  0.0000  0.0000  0.0000 </r>
        <r>  0.0000  0.0000  0.0000  0.0000  0.0000  0.0000  0.0000  0.0000  0.0000 </r>
        <r>  0.0000  0.0000  0.0000  0.0000  0.0000  0.0000  0.0000  0.0000  0.0000 </r>
        <r>  0.0000  0.0000  0.0000  0.0000  0.0000  0.0000  0.0000  0.0000  0.0000 </r>
        <r>  0.0000  0.0001  0.0000  0.0001  0.0000  0.0000  0.0000  0.0000  0.0000 </r>
        <r>  0.0000  0.0000  0.0000  0.0000  0.0000  0.0000  0.0000  0.0000  0.0000 </r>
        <r>  0.0000  0.0000  0.0001  0.0001  0.0000  0.0000  0.0000  0.0000  0.0000 </r>
       </set>
       <set comment="band 141">
        <r>  0.0000  0.0000  0.0000  0.0001  0.0000  0.0000  0.0000  0.0000  0.0000 </r>
        <r>  0.0000  0.0000  0.0000  0.0000  0.0000  0.0000  0.0000  0.0000  0.0000 </r>
        <r>  0.0000  0.0001  0.0000  0.0001  0.0000  0.0000  0.0000  0.0000  0.0000 </r>
        <r>  0.0000  0.0000  0.0000  0.0000  0.0000  0.0000  0.0000  0.0000  0.0000 </r>
        <r>  0.0000  0.0000  0.0000  0.0000  0.0000  0.0000  0.0000  0.0000  0.0000 </r>
        <r>  0.0000  0.0000  0.0000  0.0000  0.0000  0.0000  0.0000  0.0000  0.0000 </r>
        <r>  0.0000  0.0001  0.0000  0.0000  0.0000  0.0000  0.0000  0.0000  0.0000 </r>
       </set>
       <set comment="band 142">
        <r>  0.0046  0.0010  0.0011  0.0011  0.0000  0.0000  0.0000  0.0000  0.0000 </r>
        <r>  0.0000  0.0000  0.0061  0.0000  0.0000  0.0000  0.0000  0.0000  0.0000 </r>
        <r>  0.0059  0.0013  0.0011  0.0013  0.0000  0.0000  0.0000  0.0000  0.0000 </r>
        <r>  0.0000  0.0060  0.0000  0.0000  0.0000  0.0000  0.0000  0.0000  0.0000 </r>
        <r>  0.0039  0.0009  0.0010  0.0011  0.0000  0.0000  0.0000  0.0000  0.0000 </r>
        <r>  0.0000  0.0000  0.0000  0.0058  0.0000  0.0000  0.0000  0.0000  0.0000 </r>
        <r>  0.0059  0.0013  0.0012  0.0012  0.0000  0.0000  0.0000  0.0000  0.0000 </r>
       </set>
       <set comment="band 143">
        <r>  0.0065  0.0002  0.0003  0.0008  0.0000  0.0000  0.0000  0.0000  0.0000 </r>
        <r>  0.0002  0.0020  0.0000  0.0002  0.0000  0.0000  0.0000  0.0000  0.0000 </r>
        <r>  0.0027  0.0001  0.0002  0.0006  0.0000  0.0000  0.0000  0.0000  0.0000 </r>
        <r>  0.0000  0.0000  0.0020  0.0007  0.0000  0.0000  0.0000  0.0000  0.0000 </r>
        <r>  0.0022  0.0000  0.0002  0.0006  0.0000  0.0000  0.0000  0.0000  0.0000 </r>
        <r>  0.0005  0.0007  0.0002  0.0000  0.0000  0.0000  0.0000  0.0000  0.0000 </r>
        <r>  0.0044  0.0001  0.0002  0.0007  0.0000  0.0000  0.0000  0.0000  0.0000 </r>
       </set>
       <set comment="band 144">
        <r>  0.0042  0.0001  0.0007  0.0002  0.0000  0.0000  0.0000  0.0000  0.0000 </r>
        <r>  0.0005  0.0007  0.0000  0.0000  0.0000  0.0000  0.0000  0.0000  0.0000 </r>
        <r>  0.0052  0.0001  0.0008  0.0003  0.0000  0.0000  0.0000  0.0000  0.0000 </r>
        <r>  0.0000  0.0000  0.0007  0.0021  0.0000  0.0000  0.0000  0.0000  0.0000 </r>
        <r>  0.0022  0.0000  0.0006  0.0002  0.0000  0.0000  0.0000  0.0000  0.0000 </r>
        <r>  0.0002  0.0021  0.0001  0.0000  0.0000  0.0000  0.0000  0.0000  0.0000 </r>
        <r>  0.0041  0.0000  0.0007  0.0003  0.0000  0.0000  0.0000  0.0000  0.0000 </r>
       </set>
      </set>
     </set>
    </set>
   </array>
  </projected>
 </calculation>
 <structure name="finalpos" >
  <crystal>
   <varray name="basis" >
    <v>       5.43784835       0.00000000       0.00000000 </v>
    <v>       0.00000000       5.43784835       0.00000000 </v>
    <v>       0.00000000       0.00000000       5.43784835 </v>
   </varray>
   <i name="volume">    160.79823434 </i>
   <varray name="rec_basis" >
    <v>       0.18389626       0.00000000       0.00000000 </v>
    <v>       0.00000000       0.18389626       0.00000000 </v>
    <v>       0.00000000       0.00000000       0.18389626 </v>
   </varray>
  </crystal>
  <varray name="positions" >
   <v>       0.24194722       0.75805278       0.24194722 </v>
   <v>       0.00000000       0.00000000       0.50000000 </v>
   <v>       0.24194722       0.24194722       0.75805278 </v>
   <v>       0.00000000       0.50000000       0.00000000 </v>
   <v>       0.75805278       0.75805278       0.75805278 </v>
   <v>       0.50000000       0.00000000       0.00000000 </v>
   <v>       0.75805278       0.24194722       0.24194722 </v>
  </varray>
 </structure>
</modeling>
