
*************** JDFTx 1.7.0  ***************

Start date and time: Wed Sep 11 15:26:38 2024
Executable jdftx with command-line: -i input-tutorial.in
Running on hosts (process indices):  235368e547b6 (0)
Divided in process groups (process indices):  0 (0)
Resource initialization completed at t[s]:      0.00
Run totals: 1 processes, 10 threads, 0 GPUs
Could not open file 'input-tutorial.in' for reading.
--------------------------------------------------------------------------
MPI_ABORT was invoked on rank 0 in communicator MPI_COMM_WORLD
with errorcode 1.

NOTE: invoking MPI_ABORT causes Open MPI to kill all MPI processes.
You may or may not see output from other processes, depending on
exactly when Open MPI kills them.
--------------------------------------------------------------------------
