O     ONCVPSP-3.2.3.1  r_core=   1.26150   1.35509   1.26150
8.0000      6.0000      170504    zatom,zion,pspd
8      11   2     4   600     0    pspcod,pspxc,lmax,lloc,mmax,r2well
5.99000000  4.00000000  0.00000000    rchrg fchrg qchrg
2     2     1     0     0    nproj
1     1           extension_switch
0                         7.2366985471894D+00  9.9768859532965D-01
1  0.0000000000000D+00 -7.2644567028490D-09  1.8444153426778D-08
2  1.0000000000000D-02  1.0665027785755D-01 -4.8085246035022D-02
3  2.0000000000000D-02  2.1276571663443D-01 -9.5367746531287D-02
4  3.0000000000000D-02  3.1781743822719D-01 -1.4105812652336D-01
5  4.0000000000000D-02  4.2128838529094D-01 -1.8439350077069D-01
6  5.0000000000000D-02  5.2267898053461D-01 -2.2465009490497D-01
7  6.0000000000000D-02  6.2151249001462D-01 -2.6115513157727D-01
8  7.0000000000000D-02  7.1734000048432D-01 -2.9329775875911D-01
9  8.0000000000000D-02  8.0974492812082D-01 -3.2053881579560D-01
10  9.0000000000000D-02  8.9834698476875D-01 -3.4241925519412D-01
11  1.0000000000000D-01  9.8280553804507D-01 -3.5856706403073D-01
12  1.1000000000000D-01  1.0628223130450D+00 -3.6870255777321D-01
13  1.2000000000000D-01  1.1381433957600D+00 -3.7264195070140D-01
14  1.3000000000000D-01  1.2085605114313D+00 -3.7029914035087D-01
15  1.4000000000000D-01  1.2739115646607D+00 -3.6168567787708D-01
16  1.5000000000000D-01  1.3340804419334D+00 -3.4690893127352D-01
17  1.6000000000000D-01  1.3889960910046D+00 -3.2616848330437D-01
18  1.7000000000000D-01  1.4386309051009D+00 -2.9975084015792D-01
19  1.8000000000000D-01  1.4829984528333D+00 -2.6802255953254D-01
20  1.9000000000000D-01  1.5221506068575D+00 -2.3142193750010D-01
21  2.0000000000000D-01  1.5561741354224D+00 -1.9044942145815D-01
22  2.1000000000000D-01  1.5851868307998D+00 -1.4565694123779D-01
23  2.2000000000000D-01  1.6093332570006D+00 -9.7636371494331D-02
24  2.3000000000000D-01  1.6287802059905D+00 -4.7007355458611D-02
25  2.4000000000000D-01  1.6437119566895D+00  5.5952673697861D-03
26  2.5000000000000D-01  1.6543254342745D+00  5.9534179201718D-02
27  2.6000000000000D-01  1.6608253686363D+00  1.1418219428372D-01
28  2.7000000000000D-01  1.6634195502476D+00  1.6893451023618D-01
29  2.8000000000000D-01  1.6623142791760D+00  2.2322035597550D-01
30  2.9000000000000D-01  1.6577100985836D+00  2.7651380348767D-01
31  3.0000000000000D-01  1.6497978978613D+00  3.2834352700106D-01
32  3.1000000000000D-01  1.6387554626737D+00  3.7830131367047D-01
33  3.2000000000000D-01  1.6247445397919D+00  4.2604915435107D-01
34  3.3000000000000D-01  1.6079084738285D+00  4.7132477095249D-01
35  3.4000000000000D-01  1.5883704610946D+00  5.1394546769155D-01
36  3.5000000000000D-01  1.5662324529668D+00  5.5381022672387D-01
37  3.6000000000000D-01  1.5415747276610D+00  5.9090000349980D-01
38  3.7000000000000D-01  1.5144561353974D+00  6.2527621308426D-01
39  3.8000000000000D-01  1.4849150078876D+00  6.5707743492341D-01
40  3.9000000000000D-01  1.4529707091510D+00  6.8651439942165D-01
41  4.0000000000000D-01  1.4186257911487D+00  7.1386335452101D-01
42  4.1000000000000D-01  1.3818687048655D+00  7.3945794356805D-01
43  4.2000000000000D-01  1.3426770055460D+00  7.6367975645810D-01
44  4.3000000000000D-01  1.3010209800153D+00  7.8694774375797D-01
45  4.4000000000000D-01  1.2568676146258D+00  8.0970670766652D-01
46  4.5000000000000D-01  1.2101848145476D+00  8.3241510379367D-01
47  4.6000000000000D-01  1.1609457790274D+00  8.5553240339983D-01
48  4.7000000000000D-01  1.1091334330119D+00  8.7950627661326D-01
49  4.8000000000000D-01  1.0547448132581D+00  9.0475986298748D-01
50  4.9000000000000D-01  9.9779530679619D-01  9.3167939642414D-01
51  5.0000000000000D-01  9.3832264138784D-01  9.6060244692207D-01
52  5.1000000000000D-01  8.7639053141300D-01  9.9180703187505D-01
53  5.2000000000000D-01  8.1209188837181D-01  1.0255018348683D+00
54  5.3000000000000D-01  7.4555151280012D-01  1.0618177503649D+00
55  5.4000000000000D-01  6.7692819373139D-01  1.1008009487011D+00
56  5.5000000000000D-01  6.0641615274702D-01  1.1424076277847D+00
57  5.6000000000000D-01  5.3424578192325D-01  1.1865005863823D+00
58  5.7000000000000D-01  4.6068363837467D-01  1.2328477194800D+00
59  5.8000000000000D-01  3.8603167241671D-01  1.2811224994031D+00
60  5.9000000000000D-01  3.1062568124373D-01  1.3309064681652D+00
61  6.0000000000000D-01  2.3483299532381D-01  1.3816937271850D+00
62  6.1000000000000D-01  1.5904941996702D-01  1.4328973712985D+00
63  6.2000000000000D-01  8.3695469616515D-02  1.4838577751891D+00
64  6.3000000000000D-01  9.2119469276429D-03  1.5338526030256D+00
65  6.4000000000000D-01 -6.3945067626597D-02  1.5821083769152D+00
66  6.5000000000000D-01 -1.3530973722595D-01  1.6278134071830D+00
67  6.6000000000000D-01 -2.0441241162553D-01  1.6701318585599D+00
68  6.7000000000000D-01 -2.7078589219896D-01  1.7082187013120D+00
69  6.8000000000000D-01 -3.3397191182936D-01  1.7412352758122D+00
70  6.9000000000000D-01 -3.9352771640925D-01  1.7683651835720D+00
71  7.0000000000000D-01 -4.4903263079180D-01  1.7888302075117D+00
72  7.1000000000000D-01 -5.0009449028117D-01  1.8019059595347D+00
73  7.2000000000000D-01 -5.4635581923313D-01  1.8069369544881D+00
74  7.3000000000000D-01 -5.8749964103870D-01  1.8033508162841D+00
75  7.4000000000000D-01 -6.2325480869584D-01  1.7906713343500D+00
76  7.5000000000000D-01 -6.5340075217239D-01  1.7685301062576D+00
77  7.6000000000000D-01 -6.7777154788435D-01  1.7366765254917D+00
78  7.7000000000000D-01 -6.9625922651191D-01  1.6949859009751D+00
79  7.8000000000000D-01 -7.0881624800102D-01  1.6434655270400D+00
80  7.9000000000000D-01 -7.1545708667079D-01  1.5822585583128D+00
81  8.0000000000000D-01 -7.1625888463043D-01  1.5116455828469D+00
82  8.1000000000000D-01 -7.1136114792545D-01  1.4320438280969D+00
83  8.2000000000000D-01 -7.0096447668876D-01  1.3440039772157D+00
84  8.3000000000000D-01 -6.8532833775745D-01  1.2482046168880D+00
85  8.4000000000000D-01 -6.6476790541279D-01  1.1454443816728D+00
86  8.5000000000000D-01 -6.3965001278964D-01  1.0366319027940D+00
87  8.6000000000000D-01 -6.1038827276388D-01  9.2277371068632D-01
88  8.7000000000000D-01 -5.7743744245566D-01  8.0496027957723D-01
89  8.8000000000000D-01 -5.4128711959024D-01  6.8435043822711D-01
90  8.9000000000000D-01 -5.0245487156386D-01  5.6215440295618D-01
91  9.0000000000000D-01 -4.6147890892549D-01  4.3961571663720D-01
92  9.1000000000000D-01 -4.1891042389132D-01  3.1799239987449D-01
93  9.2000000000000D-01 -3.7530572127751D-01  1.9853763766737D-01
94  9.3000000000000D-01 -3.3121827372803D-01  8.2480336108700D-02
95  9.4000000000000D-01 -2.8719083522842D-01 -2.8994111156043D-02
96  9.5000000000000D-01 -2.4374774657818D-01 -1.3476250802579D-01
97  9.6000000000000D-01 -2.0138756373285D-01 -2.3378166120019D-01
98  9.7000000000000D-01 -1.6057613476623D-01 -3.2510498761596D-01
99  9.8000000000000D-01 -1.2174024369825D-01 -4.0789762548776D-01
100  9.9000000000000D-01 -8.5261929599447D-02 -4.8144977573342D-01
101  1.0000000000000D+00 -5.1473578075129D-02 -5.4518802966888D-01
102  1.0100000000000D+00 -2.0653868059497D-02 -5.9868447529109D-01
103  1.0200000000000D+00  6.9753578905075D-03 -6.4166341232271D-01
104  1.0300000000000D+00  3.1251248270541D-02 -6.7400554894691D-01
105  1.0400000000000D+00  5.2071088113880D-02 -6.9574959771600D-01
106  1.0500000000000D+00  6.9392420173206D-02 -7.0709123693979D-01
107  1.0600000000000D+00  8.3232143279182D-02 -7.0837944637634D-01
108  1.0700000000000D+00  9.3664610607152D-02 -7.0011028047054D-01
109  1.0800000000000D+00  1.0081876712115D-01 -6.8291818471212D-01
110  1.0900000000000D+00  1.0487438381452D-01 -6.5756500763070D-01
111  1.1000000000000D+00  1.0605746359540D-01 -6.2492690498529D-01
112  1.1100000000000D+00  1.0463490715337D-01 -5.8597936717302D-01
113  1.1200000000000D+00  1.0090854407205D-01 -5.4178064408570D-01
114  1.1300000000000D+00  9.5208644156164D-02 -4.9345386637117D-01
115  1.1400000000000D+00  8.7887035178372D-02 -4.4216819063508D-01
116  1.1500000000000D+00  7.9309959706099D-02 -3.8911931251723D-01
117  1.1600000000000D+00  6.9850811122198D-02 -3.3550971039131D-01
118  1.1700000000000D+00  5.9882893116702D-02 -2.8252899362477D-01
119  1.1800000000000D+00  4.9772344109109D-02 -2.3133472003435D-01
120  1.1900000000000D+00  3.9871260262894D-02 -1.8303375210067D-01
121  1.2000000000000D+00  3.0511608842007D-02 -1.3866576514410D-01
122  1.2100000000000D+00  2.1999270210430D-02 -9.9187050552787D-02
123  1.2200000000000D+00  1.4607939462217D-02 -6.5457485663322D-02
124  1.2300000000000D+00  8.5615312695174D-03 -3.8176176392130D-02
125  1.2400000000000D+00  4.0140906039379D-03 -1.7805317286897D-02
126  1.2500000000000D+00  1.2271941714017D-03 -5.3474791305021D-03
127  1.2600000000000D+00  9.3005933173358D-05 -2.7916916655774D-04
128  1.2700000000000D+00 -7.4143472075117D-05  3.8923204262926D-04
129  1.2800000000000D+00  2.0320403326179D-05 -1.0174850330366D-04
130  1.2900000000000D+00  9.5885407769992D-06 -4.7194540798431D-05
131  1.3000000000000D+00 -4.8611803639056D-06  2.4818056628982D-05
132  1.3100000000000D+00 -4.0198697741445D-08 -2.4731512260169D-08
133  1.3200000000000D+00 -4.0928557562099D-08 -2.5180545142250D-08
134  1.3300000000000D+00  0.0000000000000D+00  0.0000000000000D+00
135  1.3400000000000D+00  0.0000000000000D+00  0.0000000000000D+00
136  1.3500000000000D+00  0.0000000000000D+00  0.0000000000000D+00
137  1.3600000000000D+00  0.0000000000000D+00  0.0000000000000D+00
138  1.3700000000000D+00  0.0000000000000D+00  0.0000000000000D+00
139  1.3800000000000D+00  0.0000000000000D+00  0.0000000000000D+00
140  1.3900000000000D+00  0.0000000000000D+00  0.0000000000000D+00
141  1.4000000000000D+00  0.0000000000000D+00  0.0000000000000D+00
142  1.4100000000000D+00  0.0000000000000D+00  0.0000000000000D+00
143  1.4200000000000D+00  0.0000000000000D+00  0.0000000000000D+00
144  1.4300000000000D+00  0.0000000000000D+00  0.0000000000000D+00
145  1.4400000000000D+00  0.0000000000000D+00  0.0000000000000D+00
146  1.4500000000000D+00  0.0000000000000D+00  0.0000000000000D+00
147  1.4600000000000D+00  0.0000000000000D+00  0.0000000000000D+00
148  1.4700000000000D+00  0.0000000000000D+00  0.0000000000000D+00
149  1.4800000000000D+00  0.0000000000000D+00  0.0000000000000D+00
150  1.4900000000000D+00  0.0000000000000D+00  0.0000000000000D+00
151  1.5000000000000D+00  0.0000000000000D+00  0.0000000000000D+00
152  1.5100000000000D+00  0.0000000000000D+00  0.0000000000000D+00
153  1.5200000000000D+00  0.0000000000000D+00  0.0000000000000D+00
154  1.5300000000000D+00  0.0000000000000D+00  0.0000000000000D+00
155  1.5400000000000D+00  0.0000000000000D+00  0.0000000000000D+00
156  1.5500000000000D+00  0.0000000000000D+00  0.0000000000000D+00
157  1.5600000000000D+00  0.0000000000000D+00  0.0000000000000D+00
158  1.5700000000000D+00  0.0000000000000D+00  0.0000000000000D+00
159  1.5800000000000D+00  0.0000000000000D+00  0.0000000000000D+00
160  1.5900000000000D+00  0.0000000000000D+00  0.0000000000000D+00
161  1.6000000000000D+00  0.0000000000000D+00  0.0000000000000D+00
162  1.6100000000000D+00  0.0000000000000D+00  0.0000000000000D+00
163  1.6200000000000D+00  0.0000000000000D+00  0.0000000000000D+00
164  1.6300000000000D+00  0.0000000000000D+00  0.0000000000000D+00
165  1.6400000000000D+00  0.0000000000000D+00  0.0000000000000D+00
166  1.6500000000000D+00  0.0000000000000D+00  0.0000000000000D+00
167  1.6600000000000D+00  0.0000000000000D+00  0.0000000000000D+00
168  1.6700000000000D+00  0.0000000000000D+00  0.0000000000000D+00
169  1.6800000000000D+00  0.0000000000000D+00  0.0000000000000D+00
170  1.6900000000000D+00  0.0000000000000D+00  0.0000000000000D+00
171  1.7000000000000D+00  0.0000000000000D+00  0.0000000000000D+00
172  1.7100000000000D+00  0.0000000000000D+00  0.0000000000000D+00
173  1.7200000000000D+00  0.0000000000000D+00  0.0000000000000D+00
174  1.7300000000000D+00  0.0000000000000D+00  0.0000000000000D+00
175  1.7400000000000D+00  0.0000000000000D+00  0.0000000000000D+00
176  1.7500000000000D+00  0.0000000000000D+00  0.0000000000000D+00
177  1.7600000000000D+00  0.0000000000000D+00  0.0000000000000D+00
178  1.7700000000000D+00  0.0000000000000D+00  0.0000000000000D+00
179  1.7800000000000D+00  0.0000000000000D+00  0.0000000000000D+00
180  1.7900000000000D+00  0.0000000000000D+00  0.0000000000000D+00
181  1.8000000000000D+00  0.0000000000000D+00  0.0000000000000D+00
182  1.8100000000000D+00  0.0000000000000D+00  0.0000000000000D+00
183  1.8200000000000D+00  0.0000000000000D+00  0.0000000000000D+00
184  1.8300000000000D+00  0.0000000000000D+00  0.0000000000000D+00
185  1.8400000000000D+00  0.0000000000000D+00  0.0000000000000D+00
186  1.8500000000000D+00  0.0000000000000D+00  0.0000000000000D+00
187  1.8600000000000D+00  0.0000000000000D+00  0.0000000000000D+00
188  1.8700000000000D+00  0.0000000000000D+00  0.0000000000000D+00
189  1.8800000000000D+00  0.0000000000000D+00  0.0000000000000D+00
190  1.8900000000000D+00  0.0000000000000D+00  0.0000000000000D+00
191  1.9000000000000D+00  0.0000000000000D+00  0.0000000000000D+00
192  1.9100000000000D+00  0.0000000000000D+00  0.0000000000000D+00
193  1.9200000000000D+00  0.0000000000000D+00  0.0000000000000D+00
194  1.9300000000000D+00  0.0000000000000D+00  0.0000000000000D+00
195  1.9400000000000D+00  0.0000000000000D+00  0.0000000000000D+00
196  1.9500000000000D+00  0.0000000000000D+00  0.0000000000000D+00
197  1.9600000000000D+00  0.0000000000000D+00  0.0000000000000D+00
198  1.9700000000000D+00  0.0000000000000D+00  0.0000000000000D+00
199  1.9800000000000D+00  0.0000000000000D+00  0.0000000000000D+00
200  1.9900000000000D+00  0.0000000000000D+00  0.0000000000000D+00
201  2.0000000000000D+00  0.0000000000000D+00  0.0000000000000D+00
202  2.0100000000000D+00  0.0000000000000D+00  0.0000000000000D+00
203  2.0200000000000D+00  0.0000000000000D+00  0.0000000000000D+00
204  2.0300000000000D+00  0.0000000000000D+00  0.0000000000000D+00
205  2.0400000000000D+00  0.0000000000000D+00  0.0000000000000D+00
206  2.0500000000000D+00  0.0000000000000D+00  0.0000000000000D+00
207  2.0600000000000D+00  0.0000000000000D+00  0.0000000000000D+00
208  2.0700000000000D+00  0.0000000000000D+00  0.0000000000000D+00
209  2.0800000000000D+00  0.0000000000000D+00  0.0000000000000D+00
210  2.0900000000000D+00  0.0000000000000D+00  0.0000000000000D+00
211  2.1000000000000D+00  0.0000000000000D+00  0.0000000000000D+00
212  2.1100000000000D+00  0.0000000000000D+00  0.0000000000000D+00
213  2.1200000000000D+00  0.0000000000000D+00  0.0000000000000D+00
214  2.1300000000000D+00  0.0000000000000D+00  0.0000000000000D+00
215  2.1400000000000D+00  0.0000000000000D+00  0.0000000000000D+00
216  2.1500000000000D+00  0.0000000000000D+00  0.0000000000000D+00
217  2.1600000000000D+00  0.0000000000000D+00  0.0000000000000D+00
218  2.1700000000000D+00  0.0000000000000D+00  0.0000000000000D+00
219  2.1800000000000D+00  0.0000000000000D+00  0.0000000000000D+00
220  2.1900000000000D+00  0.0000000000000D+00  0.0000000000000D+00
221  2.2000000000000D+00  0.0000000000000D+00  0.0000000000000D+00
222  2.2100000000000D+00  0.0000000000000D+00  0.0000000000000D+00
223  2.2200000000000D+00  0.0000000000000D+00  0.0000000000000D+00
224  2.2300000000000D+00  0.0000000000000D+00  0.0000000000000D+00
225  2.2400000000000D+00  0.0000000000000D+00  0.0000000000000D+00
226  2.2500000000000D+00  0.0000000000000D+00  0.0000000000000D+00
227  2.2600000000000D+00  0.0000000000000D+00  0.0000000000000D+00
228  2.2700000000000D+00  0.0000000000000D+00  0.0000000000000D+00
229  2.2800000000000D+00  0.0000000000000D+00  0.0000000000000D+00
230  2.2900000000000D+00  0.0000000000000D+00  0.0000000000000D+00
231  2.3000000000000D+00  0.0000000000000D+00  0.0000000000000D+00
232  2.3100000000000D+00  0.0000000000000D+00  0.0000000000000D+00
233  2.3200000000000D+00  0.0000000000000D+00  0.0000000000000D+00
234  2.3300000000000D+00  0.0000000000000D+00  0.0000000000000D+00
235  2.3400000000000D+00  0.0000000000000D+00  0.0000000000000D+00
236  2.3500000000000D+00  0.0000000000000D+00  0.0000000000000D+00
237  2.3600000000000D+00  0.0000000000000D+00  0.0000000000000D+00
238  2.3700000000000D+00  0.0000000000000D+00  0.0000000000000D+00
239  2.3800000000000D+00  0.0000000000000D+00  0.0000000000000D+00
240  2.3900000000000D+00  0.0000000000000D+00  0.0000000000000D+00
241  2.4000000000000D+00  0.0000000000000D+00  0.0000000000000D+00
242  2.4100000000000D+00  0.0000000000000D+00  0.0000000000000D+00
243  2.4200000000000D+00  0.0000000000000D+00  0.0000000000000D+00
244  2.4300000000000D+00  0.0000000000000D+00  0.0000000000000D+00
245  2.4400000000000D+00  0.0000000000000D+00  0.0000000000000D+00
246  2.4500000000000D+00  0.0000000000000D+00  0.0000000000000D+00
247  2.4600000000000D+00  0.0000000000000D+00  0.0000000000000D+00
248  2.4700000000000D+00  0.0000000000000D+00  0.0000000000000D+00
249  2.4800000000000D+00  0.0000000000000D+00  0.0000000000000D+00
250  2.4900000000000D+00  0.0000000000000D+00  0.0000000000000D+00
251  2.5000000000000D+00  0.0000000000000D+00  0.0000000000000D+00
252  2.5100000000000D+00  0.0000000000000D+00  0.0000000000000D+00
253  2.5200000000000D+00  0.0000000000000D+00  0.0000000000000D+00
254  2.5300000000000D+00  0.0000000000000D+00  0.0000000000000D+00
255  2.5400000000000D+00  0.0000000000000D+00  0.0000000000000D+00
256  2.5500000000000D+00  0.0000000000000D+00  0.0000000000000D+00
257  2.5600000000000D+00  0.0000000000000D+00  0.0000000000000D+00
258  2.5700000000000D+00  0.0000000000000D+00  0.0000000000000D+00
259  2.5800000000000D+00  0.0000000000000D+00  0.0000000000000D+00
260  2.5900000000000D+00  0.0000000000000D+00  0.0000000000000D+00
261  2.6000000000000D+00  0.0000000000000D+00  0.0000000000000D+00
262  2.6100000000000D+00  0.0000000000000D+00  0.0000000000000D+00
263  2.6200000000000D+00  0.0000000000000D+00  0.0000000000000D+00
264  2.6300000000000D+00  0.0000000000000D+00  0.0000000000000D+00
265  2.6400000000000D+00  0.0000000000000D+00  0.0000000000000D+00
266  2.6500000000000D+00  0.0000000000000D+00  0.0000000000000D+00
267  2.6600000000000D+00  0.0000000000000D+00  0.0000000000000D+00
268  2.6700000000000D+00  0.0000000000000D+00  0.0000000000000D+00
269  2.6800000000000D+00  0.0000000000000D+00  0.0000000000000D+00
270  2.6900000000000D+00  0.0000000000000D+00  0.0000000000000D+00
271  2.7000000000000D+00  0.0000000000000D+00  0.0000000000000D+00
272  2.7100000000000D+00  0.0000000000000D+00  0.0000000000000D+00
273  2.7200000000000D+00  0.0000000000000D+00  0.0000000000000D+00
274  2.7300000000000D+00  0.0000000000000D+00  0.0000000000000D+00
275  2.7400000000000D+00  0.0000000000000D+00  0.0000000000000D+00
276  2.7500000000000D+00  0.0000000000000D+00  0.0000000000000D+00
277  2.7600000000000D+00  0.0000000000000D+00  0.0000000000000D+00
278  2.7700000000000D+00  0.0000000000000D+00  0.0000000000000D+00
279  2.7800000000000D+00  0.0000000000000D+00  0.0000000000000D+00
280  2.7900000000000D+00  0.0000000000000D+00  0.0000000000000D+00
281  2.8000000000000D+00  0.0000000000000D+00  0.0000000000000D+00
282  2.8100000000000D+00  0.0000000000000D+00  0.0000000000000D+00
283  2.8200000000000D+00  0.0000000000000D+00  0.0000000000000D+00
284  2.8300000000000D+00  0.0000000000000D+00  0.0000000000000D+00
285  2.8400000000000D+00  0.0000000000000D+00  0.0000000000000D+00
286  2.8500000000000D+00  0.0000000000000D+00  0.0000000000000D+00
287  2.8600000000000D+00  0.0000000000000D+00  0.0000000000000D+00
288  2.8700000000000D+00  0.0000000000000D+00  0.0000000000000D+00
289  2.8800000000000D+00  0.0000000000000D+00  0.0000000000000D+00
290  2.8900000000000D+00  0.0000000000000D+00  0.0000000000000D+00
291  2.9000000000000D+00  0.0000000000000D+00  0.0000000000000D+00
292  2.9100000000000D+00  0.0000000000000D+00  0.0000000000000D+00
293  2.9200000000000D+00  0.0000000000000D+00  0.0000000000000D+00
294  2.9300000000000D+00  0.0000000000000D+00  0.0000000000000D+00
295  2.9400000000000D+00  0.0000000000000D+00  0.0000000000000D+00
296  2.9500000000000D+00  0.0000000000000D+00  0.0000000000000D+00
297  2.9600000000000D+00  0.0000000000000D+00  0.0000000000000D+00
298  2.9700000000000D+00  0.0000000000000D+00  0.0000000000000D+00
299  2.9800000000000D+00  0.0000000000000D+00  0.0000000000000D+00
300  2.9900000000000D+00  0.0000000000000D+00  0.0000000000000D+00
301  3.0000000000000D+00  0.0000000000000D+00  0.0000000000000D+00
302  3.0100000000000D+00  0.0000000000000D+00  0.0000000000000D+00
303  3.0200000000000D+00  0.0000000000000D+00  0.0000000000000D+00
304  3.0300000000000D+00  0.0000000000000D+00  0.0000000000000D+00
305  3.0400000000000D+00  0.0000000000000D+00  0.0000000000000D+00
306  3.0500000000000D+00  0.0000000000000D+00  0.0000000000000D+00
307  3.0600000000000D+00  0.0000000000000D+00  0.0000000000000D+00
308  3.0700000000000D+00  0.0000000000000D+00  0.0000000000000D+00
309  3.0800000000000D+00  0.0000000000000D+00  0.0000000000000D+00
310  3.0900000000000D+00  0.0000000000000D+00  0.0000000000000D+00
311  3.1000000000000D+00  0.0000000000000D+00  0.0000000000000D+00
312  3.1100000000000D+00  0.0000000000000D+00  0.0000000000000D+00
313  3.1200000000000D+00  0.0000000000000D+00  0.0000000000000D+00
314  3.1300000000000D+00  0.0000000000000D+00  0.0000000000000D+00
315  3.1400000000000D+00  0.0000000000000D+00  0.0000000000000D+00
316  3.1500000000000D+00  0.0000000000000D+00  0.0000000000000D+00
317  3.1600000000000D+00  0.0000000000000D+00  0.0000000000000D+00
318  3.1700000000000D+00  0.0000000000000D+00  0.0000000000000D+00
319  3.1800000000000D+00  0.0000000000000D+00  0.0000000000000D+00
320  3.1900000000000D+00  0.0000000000000D+00  0.0000000000000D+00
321  3.2000000000000D+00  0.0000000000000D+00  0.0000000000000D+00
322  3.2100000000000D+00  0.0000000000000D+00  0.0000000000000D+00
323  3.2200000000000D+00  0.0000000000000D+00  0.0000000000000D+00
324  3.2300000000000D+00  0.0000000000000D+00  0.0000000000000D+00
325  3.2400000000000D+00  0.0000000000000D+00  0.0000000000000D+00
326  3.2500000000000D+00  0.0000000000000D+00  0.0000000000000D+00
327  3.2600000000000D+00  0.0000000000000D+00  0.0000000000000D+00
328  3.2700000000000D+00  0.0000000000000D+00  0.0000000000000D+00
329  3.2800000000000D+00  0.0000000000000D+00  0.0000000000000D+00
330  3.2900000000000D+00  0.0000000000000D+00  0.0000000000000D+00
331  3.3000000000000D+00  0.0000000000000D+00  0.0000000000000D+00
332  3.3100000000000D+00  0.0000000000000D+00  0.0000000000000D+00
333  3.3200000000000D+00  0.0000000000000D+00  0.0000000000000D+00
334  3.3300000000000D+00  0.0000000000000D+00  0.0000000000000D+00
335  3.3400000000000D+00  0.0000000000000D+00  0.0000000000000D+00
336  3.3500000000000D+00  0.0000000000000D+00  0.0000000000000D+00
337  3.3600000000000D+00  0.0000000000000D+00  0.0000000000000D+00
338  3.3700000000000D+00  0.0000000000000D+00  0.0000000000000D+00
339  3.3800000000000D+00  0.0000000000000D+00  0.0000000000000D+00
340  3.3900000000000D+00  0.0000000000000D+00  0.0000000000000D+00
341  3.4000000000000D+00  0.0000000000000D+00  0.0000000000000D+00
342  3.4100000000000D+00  0.0000000000000D+00  0.0000000000000D+00
343  3.4200000000000D+00  0.0000000000000D+00  0.0000000000000D+00
344  3.4300000000000D+00  0.0000000000000D+00  0.0000000000000D+00
345  3.4400000000000D+00  0.0000000000000D+00  0.0000000000000D+00
346  3.4500000000000D+00  0.0000000000000D+00  0.0000000000000D+00
347  3.4600000000000D+00  0.0000000000000D+00  0.0000000000000D+00
348  3.4700000000000D+00  0.0000000000000D+00  0.0000000000000D+00
349  3.4800000000000D+00  0.0000000000000D+00  0.0000000000000D+00
350  3.4900000000000D+00  0.0000000000000D+00  0.0000000000000D+00
351  3.5000000000000D+00  0.0000000000000D+00  0.0000000000000D+00
352  3.5100000000000D+00  0.0000000000000D+00  0.0000000000000D+00
353  3.5200000000000D+00  0.0000000000000D+00  0.0000000000000D+00
354  3.5300000000000D+00  0.0000000000000D+00  0.0000000000000D+00
355  3.5400000000000D+00  0.0000000000000D+00  0.0000000000000D+00
356  3.5500000000000D+00  0.0000000000000D+00  0.0000000000000D+00
357  3.5600000000000D+00  0.0000000000000D+00  0.0000000000000D+00
358  3.5700000000000D+00  0.0000000000000D+00  0.0000000000000D+00
359  3.5800000000000D+00  0.0000000000000D+00  0.0000000000000D+00
360  3.5900000000000D+00  0.0000000000000D+00  0.0000000000000D+00
361  3.6000000000000D+00  0.0000000000000D+00  0.0000000000000D+00
362  3.6100000000000D+00  0.0000000000000D+00  0.0000000000000D+00
363  3.6200000000000D+00  0.0000000000000D+00  0.0000000000000D+00
364  3.6300000000000D+00  0.0000000000000D+00  0.0000000000000D+00
365  3.6400000000000D+00  0.0000000000000D+00  0.0000000000000D+00
366  3.6500000000000D+00  0.0000000000000D+00  0.0000000000000D+00
367  3.6600000000000D+00  0.0000000000000D+00  0.0000000000000D+00
368  3.6700000000000D+00  0.0000000000000D+00  0.0000000000000D+00
369  3.6800000000000D+00  0.0000000000000D+00  0.0000000000000D+00
370  3.6900000000000D+00  0.0000000000000D+00  0.0000000000000D+00
371  3.7000000000000D+00  0.0000000000000D+00  0.0000000000000D+00
372  3.7100000000000D+00  0.0000000000000D+00  0.0000000000000D+00
373  3.7200000000000D+00  0.0000000000000D+00  0.0000000000000D+00
374  3.7300000000000D+00  0.0000000000000D+00  0.0000000000000D+00
375  3.7400000000000D+00  0.0000000000000D+00  0.0000000000000D+00
376  3.7500000000000D+00  0.0000000000000D+00  0.0000000000000D+00
377  3.7600000000000D+00  0.0000000000000D+00  0.0000000000000D+00
378  3.7700000000000D+00  0.0000000000000D+00  0.0000000000000D+00
379  3.7800000000000D+00  0.0000000000000D+00  0.0000000000000D+00
380  3.7900000000000D+00  0.0000000000000D+00  0.0000000000000D+00
381  3.8000000000000D+00  0.0000000000000D+00  0.0000000000000D+00
382  3.8100000000000D+00  0.0000000000000D+00  0.0000000000000D+00
383  3.8200000000000D+00  0.0000000000000D+00  0.0000000000000D+00
384  3.8300000000000D+00  0.0000000000000D+00  0.0000000000000D+00
385  3.8400000000000D+00  0.0000000000000D+00  0.0000000000000D+00
386  3.8500000000000D+00  0.0000000000000D+00  0.0000000000000D+00
387  3.8600000000000D+00  0.0000000000000D+00  0.0000000000000D+00
388  3.8700000000000D+00  0.0000000000000D+00  0.0000000000000D+00
389  3.8800000000000D+00  0.0000000000000D+00  0.0000000000000D+00
390  3.8900000000000D+00  0.0000000000000D+00  0.0000000000000D+00
391  3.9000000000000D+00  0.0000000000000D+00  0.0000000000000D+00
392  3.9100000000000D+00  0.0000000000000D+00  0.0000000000000D+00
393  3.9200000000000D+00  0.0000000000000D+00  0.0000000000000D+00
394  3.9300000000000D+00  0.0000000000000D+00  0.0000000000000D+00
395  3.9400000000000D+00  0.0000000000000D+00  0.0000000000000D+00
396  3.9500000000000D+00  0.0000000000000D+00  0.0000000000000D+00
397  3.9600000000000D+00  0.0000000000000D+00  0.0000000000000D+00
398  3.9700000000000D+00  0.0000000000000D+00  0.0000000000000D+00
399  3.9800000000000D+00  0.0000000000000D+00  0.0000000000000D+00
400  3.9900000000000D+00  0.0000000000000D+00  0.0000000000000D+00
401  4.0000000000000D+00  0.0000000000000D+00  0.0000000000000D+00
402  4.0100000000000D+00  0.0000000000000D+00  0.0000000000000D+00
403  4.0200000000000D+00  0.0000000000000D+00  0.0000000000000D+00
404  4.0300000000000D+00  0.0000000000000D+00  0.0000000000000D+00
405  4.0400000000000D+00  0.0000000000000D+00  0.0000000000000D+00
406  4.0500000000000D+00  0.0000000000000D+00  0.0000000000000D+00
407  4.0600000000000D+00  0.0000000000000D+00  0.0000000000000D+00
408  4.0700000000000D+00  0.0000000000000D+00  0.0000000000000D+00
409  4.0800000000000D+00  0.0000000000000D+00  0.0000000000000D+00
410  4.0900000000000D+00  0.0000000000000D+00  0.0000000000000D+00
411  4.1000000000000D+00  0.0000000000000D+00  0.0000000000000D+00
412  4.1100000000000D+00  0.0000000000000D+00  0.0000000000000D+00
413  4.1200000000000D+00  0.0000000000000D+00  0.0000000000000D+00
414  4.1300000000000D+00  0.0000000000000D+00  0.0000000000000D+00
415  4.1400000000000D+00  0.0000000000000D+00  0.0000000000000D+00
416  4.1500000000000D+00  0.0000000000000D+00  0.0000000000000D+00
417  4.1600000000000D+00  0.0000000000000D+00  0.0000000000000D+00
418  4.1700000000000D+00  0.0000000000000D+00  0.0000000000000D+00
419  4.1800000000000D+00  0.0000000000000D+00  0.0000000000000D+00
420  4.1900000000000D+00  0.0000000000000D+00  0.0000000000000D+00
421  4.2000000000000D+00  0.0000000000000D+00  0.0000000000000D+00
422  4.2100000000000D+00  0.0000000000000D+00  0.0000000000000D+00
423  4.2200000000000D+00  0.0000000000000D+00  0.0000000000000D+00
424  4.2300000000000D+00  0.0000000000000D+00  0.0000000000000D+00
425  4.2400000000000D+00  0.0000000000000D+00  0.0000000000000D+00
426  4.2500000000000D+00  0.0000000000000D+00  0.0000000000000D+00
427  4.2600000000000D+00  0.0000000000000D+00  0.0000000000000D+00
428  4.2700000000000D+00  0.0000000000000D+00  0.0000000000000D+00
429  4.2800000000000D+00  0.0000000000000D+00  0.0000000000000D+00
430  4.2900000000000D+00  0.0000000000000D+00  0.0000000000000D+00
431  4.3000000000000D+00  0.0000000000000D+00  0.0000000000000D+00
432  4.3100000000000D+00  0.0000000000000D+00  0.0000000000000D+00
433  4.3200000000000D+00  0.0000000000000D+00  0.0000000000000D+00
434  4.3300000000000D+00  0.0000000000000D+00  0.0000000000000D+00
435  4.3400000000000D+00  0.0000000000000D+00  0.0000000000000D+00
436  4.3500000000000D+00  0.0000000000000D+00  0.0000000000000D+00
437  4.3600000000000D+00  0.0000000000000D+00  0.0000000000000D+00
438  4.3700000000000D+00  0.0000000000000D+00  0.0000000000000D+00
439  4.3800000000000D+00  0.0000000000000D+00  0.0000000000000D+00
440  4.3900000000000D+00  0.0000000000000D+00  0.0000000000000D+00
441  4.4000000000000D+00  0.0000000000000D+00  0.0000000000000D+00
442  4.4100000000000D+00  0.0000000000000D+00  0.0000000000000D+00
443  4.4200000000000D+00  0.0000000000000D+00  0.0000000000000D+00