<?xml version="1.0" encoding="ISO-8859-1"?>
<modeling>
 <generator>
  <i name="program" type="string">vasp </i>
  <i name="version" type="string">6.3.1  </i>
  <i name="subversion" type="string">04May22 (build May  6 2022 16:02:18) complex                          parallel </i>
  <i name="platform" type="string">LinuxGNU </i>
  <i name="date" type="string">2023 03 22 </i>
  <i name="time" type="string">13:00:00 </i>
 </generator>
 <incar>
  <i type="string" name="PREC">Accurate</i>
  <i type="string" name="ALGO">Fast</i>
  <i type="int" name="ISPIN">     2</i>
  <i type="int" name="NELM">   200</i>
  <i type="int" name="IBRION">     2</i>
  <i name="EDIFF">      0.00001000</i>
  <i name="EDIFFG">     -0.02000000</i>
  <i type="int" name="NSW">    99</i>
  <i type="int" name="ISIF">     3</i>
  <i name="ENCUT">    680.00000000</i>
  <i name="ENAUG">   1360.00000000</i>
  <v name="MAGMOM">      0.00000000      0.00000000</v>
  <i type="logical" name="LREAL"> F  </i>
  <i type="int" name="ISMEAR">    -5</i>
  <i name="SIGMA">      0.05000000</i>
  <i type="logical" name="LWAVE"> F  </i>
  <i type="logical" name="LCHARG"> F  </i>
  <i type="logical" name="LVTOT"> T  </i>
  <i type="int" name="LORBIT">    11</i>
  <i type="logical" name="LELF"> F  </i>
  <i type="logical" name="LASPH"> T  </i>
  <i type="logical" name="LAECHG"> T  </i>
  <i type="string" name="GGA">Ps</i>
  <i type="logical" name="LMIXTAU"> T  </i>
 </incar>
 <primitive_cell>
  <structure name="primitive_cell" >
   <crystal>
    <varray name="basis" >
     <v>      -0.00000000       2.71803466       2.71803466 </v>
     <v>       2.71803466      -0.00000000       2.71803466 </v>
     <v>       2.71803466       2.71803466      -0.00000000 </v>
    </varray>
    <i name="volume">     40.16011677 </i>
    <varray name="rec_basis" >
     <v>      -0.18395645       0.18395645       0.18395645 </v>
     <v>       0.18395645      -0.18395645       0.18395645 </v>
     <v>       0.18395645       0.18395645      -0.18395645 </v>
    </varray>
   </crystal>
   <varray name="positions" >
    <v>       0.00000000       0.00000000       0.00000000 </v>
    <v>       0.25000000       0.25000000       0.25000000 </v>
   </varray>
  </structure>
  <varray name="primitive_index" >
   <v type="int" >        1 </v>
   <v type="int" >        2 </v>
  </varray>
 </primitive_cell>
 <kpoints>
  <generation param="Gamma">
   <v type="int" name="divisions">       7        7        7 </v>
   <v name="usershift">      0.00000000       0.00000000       0.00000000 </v>
   <v name="genvec1">      0.14285714       0.00000000      -0.00000000 </v>
   <v name="genvec2">      0.00000000       0.14285714       0.00000000 </v>
   <v name="genvec3">     -0.00000000      -0.00000000       0.14285714 </v>
   <v name="shift">      0.00000000       0.00000000       0.00000000 </v>
  </generation>
  <varray name="kpointlist" >
   <v>       0.00000000       0.00000000       0.00000000 </v>
   <v>       0.14285714       0.00000000       0.00000000 </v>
   <v>       0.28571429       0.00000000       0.00000000 </v>
   <v>       0.42857143       0.00000000       0.00000000 </v>
   <v>       0.14285714       0.14285714       0.00000000 </v>
   <v>       0.28571429       0.14285714       0.00000000 </v>
   <v>       0.42857143       0.14285714       0.00000000 </v>
   <v>      -0.42857143       0.14285714       0.00000000 </v>
   <v>      -0.28571429       0.14285714       0.00000000 </v>
   <v>      -0.14285714       0.14285714       0.00000000 </v>
   <v>       0.28571429       0.28571429       0.00000000 </v>
   <v>       0.42857143       0.28571429       0.00000000 </v>
   <v>      -0.42857143       0.28571429       0.00000000 </v>
   <v>      -0.28571429       0.28571429       0.00000000 </v>
   <v>       0.42857143       0.42857143       0.00000000 </v>
   <v>      -0.42857143       0.42857143       0.00000000 </v>
   <v>       0.42857143       0.28571429       0.14285714 </v>
   <v>      -0.42857143       0.28571429       0.14285714 </v>
   <v>      -0.42857143       0.42857143       0.14285714 </v>
   <v>      -0.28571429       0.42857143       0.14285714 </v>
  </varray>
  <varray name="weights" >
   <v>       0.00291545 </v>
   <v>       0.02332362 </v>
   <v>       0.02332362 </v>
   <v>       0.02332362 </v>
   <v>       0.01749271 </v>
   <v>       0.06997085 </v>
   <v>       0.06997085 </v>
   <v>       0.06997085 </v>
   <v>       0.06997085 </v>
   <v>       0.03498542 </v>
   <v>       0.01749271 </v>
   <v>       0.06997085 </v>
   <v>       0.06997085 </v>
   <v>       0.03498542 </v>
   <v>       0.01749271 </v>
   <v>       0.03498542 </v>
   <v>       0.06997085 </v>
   <v>       0.13994169 </v>
   <v>       0.06997085 </v>
   <v>       0.06997085 </v>
  </varray>
  <varray name="tetrahedronlist"  type="int" >
   <v type="int" >       48        2        3        6       10 </v>
   <v type="int" >       48        6        9       10       17 </v>
   <v type="int" >       24        9        9       10       17 </v>
   <v type="int" >       48        3        6        9       10 </v>
   <v type="int" >       48        9       14       17       18 </v>
   <v type="int" >       48        8        9       14       18 </v>
   <v type="int" >       24        9        9       14       17 </v>
   <v type="int" >       48        8       13       18       18 </v>
   <v type="int" >       48        7        8       13       18 </v>
   <v type="int" >       48        8       13       14       18 </v>
   <v type="int" >       48        7       12       17       18 </v>
   <v type="int" >       48        6        7       12       17 </v>
   <v type="int" >       48        7       12       13       18 </v>
   <v type="int" >       24        6        6       11       17 </v>
   <v type="int" >       24        5        6        6       11 </v>
   <v type="int" >       48        6       11       12       17 </v>
   <v type="int" >       24        5        6        6       10 </v>
   <v type="int" >       48        2        5        6       10 </v>
   <v type="int" >       48        6        7        9       17 </v>
   <v type="int" >       48        3        6        7        9 </v>
   <v type="int" >       48       12       17       18       19 </v>
   <v type="int" >       24       17       18       18       19 </v>
   <v type="int" >       24       14       17       18       18 </v>
   <v type="int" >       48        7        9       17       18 </v>
   <v type="int" >       48       18       19       20       20 </v>
   <v type="int" >       24       18       18       20       20 </v>
   <v type="int" >       48       13       18       18       20 </v>
   <v type="int" >       24       18       18       19       20 </v>
   <v type="int" >       24       14       18       18       20 </v>
   <v type="int" >       48       13       14       18       20 </v>
   <v type="int" >       48       13       18       19       20 </v>
   <v type="int" >       48       12       13       18       19 </v>
   <v type="int" >       24       12       12       17       19 </v>
   <v type="int" >       24       11       12       12       17 </v>
   <v type="int" >       24        6        6       10       17 </v>
   <v type="int" >       48       12       13       16       19 </v>
   <v type="int" >       24       16       19       19       20 </v>
   <v type="int" >       12       19       19       20       20 </v>
   <v type="int" >       24       19       20       20       20 </v>
   <v type="int" >       48       13       16       19       20 </v>
   <v type="int" >        6       20       20       20       20 </v>
   <v type="int" >       48        7        8        8       18 </v>
   <v type="int" >       48        7        8        9       18 </v>
   <v type="int" >       24       13       13       16       20 </v>
   <v type="int" >       24        8        8       18       18 </v>
   <v type="int" >       24        2        2        5       10 </v>
   <v type="int" >       48        3        4        7        9 </v>
   <v type="int" >       48        4        7        8        9 </v>
   <v type="int" >       24       13       13       14       20 </v>
   <v type="int" >       24       12       12       15       19 </v>
   <v type="int" >       24       11       12       12       15 </v>
   <v type="int" >       48       12       15       16       19 </v>
   <v type="int" >       48        4        7        8        8 </v>
   <v type="int" >       12       16       16       19       19 </v>
   <v type="int" >       24       15       16       16       19 </v>
   <v type="int" >       24        4        4        8        8 </v>
   <v type="int" >       12       15       15       16       16 </v>
   <v type="int" >       24        1        2        2        5 </v>
  </varray>
  <i name="volumeweight">      0.00048591 </i>
 </kpoints>
 <parameters>
  <separator name="general" >
   <i type="string" name="SYSTEM">unknown system</i>
   <i type="logical" name="LCOMPAT"> F  </i>
  </separator>
  <separator name="electronic" >
   <i type="string" name="PREC">accura</i>
   <i name="ENMAX">    680.00000000</i>
   <i name="ENAUG">   1360.00000000</i>
   <i name="EDIFF">      0.00001000</i>
   <i type="int" name="IALGO">    68</i>
   <i type="int" name="IWAVPR">    11</i>
   <i type="int" name="NBANDS">     8</i>
   <i type="int" name="NBANDSLOW">    -1</i>
   <i type="int" name="NBANDSHIGH">    -1</i>
   <i name="NELECT">      8.00000000</i>
   <i type="int" name="TURBO">     0</i>
   <i type="int" name="IRESTART">     0</i>
   <i type="int" name="NREBOOT">     0</i>
   <i type="int" name="NMIN">     0</i>
   <i name="EREF">      0.00000000</i>
   <separator name="electronic smearing" >
    <i type="int" name="ISMEAR">    -5</i>
    <i name="SIGMA">      0.05000000</i>
    <i name="KSPACING">      0.50000000</i>
    <i type="logical" name="KGAMMA"> T  </i>
    <i type="logical" name="KBLOWUP"> T  </i>
   </separator>
   <separator name="electronic projectors" >
    <i type="logical" name="LREAL"> F  </i>
    <v name="ROPT">      0.00000000</v>
    <i type="int" name="LMAXPAW">  -100</i>
    <i type="int" name="LMAXMIX">     2</i>
    <i type="logical" name="NLSPLINE"> F  </i>
   </separator>
   <separator name="electronic startup" >
    <i type="int" name="ISTART">     0</i>
    <i type="int" name="ICHARG">     2</i>
    <i type="int" name="INIWAV">     1</i>
   </separator>
   <separator name="electronic spin" >
    <i type="int" name="ISPIN">     2</i>
    <i type="logical" name="LNONCOLLINEAR"> F  </i>
    <v name="MAGMOM">      0.00000000      0.00000000</v>
    <i name="NUPDOWN">     -1.00000000</i>
    <i type="logical" name="LSORBIT"> F  </i>
    <v name="SAXIS">      0.00000000      0.00000000      1.00000000</v>
    <i type="logical" name="LSPIRAL"> F  </i>
    <v name="QSPIRAL">      0.00000000      0.00000000      0.00000000</v>
    <i type="logical" name="LZEROZ"> F  </i>
   </separator>
   <separator name="electronic exchange-correlation" >
    <i type="logical" name="LASPH"> T  </i>
    <i type="logical" name="LMETAGGA"> F  </i>
   </separator>
   <separator name="electronic convergence" >
    <i type="int" name="NELM">   200</i>
    <i type="int" name="NELMDL">    -5</i>
    <i type="int" name="NELMIN">     2</i>
    <i name="ENINI">    680.00000000</i>
    <separator name="electronic convergence detail" >
     <i type="logical" name="LDIAG"> T  </i>
     <i type="logical" name="LSUBROT"> F  </i>
     <i name="WEIMIN">      0.00100000</i>
     <i name="EBREAK">      0.00000031</i>
     <i name="DEPER">      0.30000000</i>
     <i type="int" name="NRMM">     4</i>
     <i name="TIME">      0.40000000</i>
    </separator>
   </separator>
   <separator name="electronic mixer" >
    <i name="AMIX">      0.40000000</i>
    <i name="BMIX">      1.00000000</i>
    <i name="AMIN">      0.10000000</i>
    <i name="AMIX_MAG">      1.60000000</i>
    <i name="BMIX_MAG">      1.00000000</i>
    <separator name="electronic mixer details" >
     <i type="int" name="IMIX">     4</i>
     <i type="logical" name="MIXFIRST"> F  </i>
     <i type="int" name="MAXMIX">   -45</i>
     <i name="WC">    100.00000000</i>
     <i type="int" name="INIMIX">     1</i>
     <i type="int" name="MIXPRE">     1</i>
     <i type="int" name="MREMOVE">     5</i>
    </separator>
   </separator>
   <separator name="electronic dipolcorrection" >
    <i type="logical" name="LDIPOL"> F  </i>
    <i type="logical" name="LMONO"> F  </i>
    <i type="int" name="IDIPOL">     0</i>
    <i name="EPSILON">      1.00000000</i>
    <v name="DIPOL">   -100.00000000   -100.00000000   -100.00000000</v>
    <i name="EFIELD">      0.00000000</i>
   </separator>
  </separator>
  <separator name="grids" >
   <i type="int" name="NGX">    36</i>
   <i type="int" name="NGY">    36</i>
   <i type="int" name="NGZ">    36</i>
   <i type="int" name="NGXF">    72</i>
   <i type="int" name="NGYF">    72</i>
   <i type="int" name="NGZF">    72</i>
   <i type="logical" name="ADDGRID"> F  </i>
  </separator>
  <separator name="ionic" >
   <i type="int" name="NSW">    99</i>
   <i type="int" name="IBRION">     2</i>
   <i type="int" name="MDALGO">     0</i>
   <i type="int" name="ISIF">     3</i>
   <i name="PSTRESS">      0.00000000</i>
   <i name="EDIFFG">     -0.02000000</i>
   <i type="int" name="NFREE">     1</i>
   <i name="POTIM">      0.50000000</i>
   <i name="SMASS">     -3.00000000</i>
   <i name="SCALEE">      1.00000000</i>
  </separator>
  <separator name="ionic md" >
   <i name="TEBEG">      0.00010000</i>
   <i name="TEEND">      0.00010000</i>
   <i type="int" name="NBLOCK">     1</i>
   <i type="int" name="KBLOCK">    99</i>
   <i type="int" name="NPACO">   256</i>
   <i name="APACO">     10.00000000</i>
  </separator>
  <separator name="symmetry" >
   <i type="int" name="ISYM">     2</i>
   <i name="SYMPREC">      0.00001000</i>
  </separator>
  <separator name="dos" >
   <i type="int" name="LORBIT">    11</i>
   <v name="RWIGS">     -1.00000000</v>
   <i type="int" name="NEDOS">   301</i>
   <i name="EMIN">     10.00000000</i>
   <i name="EMAX">    -10.00000000</i>
   <i name="EFERMI">      0.00000000</i>
  </separator>
  <separator name="writing" >
   <i type="int" name="NWRITE">     2</i>
   <i type="logical" name="LWAVE"> F  </i>
   <i type="logical" name="LDOWNSAMPLE"> F  </i>
   <i type="logical" name="LCHARG"> F  </i>
   <i type="logical" name="LPARD"> F  </i>
   <i type="logical" name="LVTOT"> T  </i>
   <i type="logical" name="LVHAR"> F  </i>
   <i type="logical" name="LELF"> F  </i>
   <i type="logical" name="LOPTICS"> F  </i>
   <v name="STM">      0.00000000      0.00000000      0.00000000      0.00000000      0.00000000      0.00000000      0.00000000</v>
  </separator>
  <separator name="performance" >
   <i type="int" name="NPAR">     4</i>
   <i type="int" name="NSIM">     4</i>
   <i type="int" name="NBLK">    -1</i>
   <i type="logical" name="LPLANE"> T  </i>
   <i type="logical" name="LSCALAPACK"> T  </i>
   <i type="logical" name="LSCAAWARE"> F  </i>
   <i type="logical" name="LSCALU"> F  </i>
   <i type="logical" name="LASYNC"> F  </i>
   <i type="logical" name="LORBITALREAL"> F  </i>
  </separator>
  <separator name="miscellaneous" >
   <i type="int" name="IDIOT">     3</i>
   <i type="int" name="PHON_NSTRUCT">    -1</i>
   <i type="logical" name="LMUSIC"> F  </i>
   <v name="POMASS">     28.08500000</v>
   <v name="DARWINR">      0.00000000</v>
   <v name="DARWINV">      1.00000000</v>
   <i type="logical" name="LCORR"> T  </i>
  </separator>
  <i type="logical" name="GGA_COMPAT"> T  </i>
  <i type="logical" name="LBERRY"> F  </i>
  <i type="int" name="ICORELEVEL">     0</i>
  <i type="logical" name="LDAU"> F  </i>
  <i type="int" name="I_CONSTRAINED_M">     0</i>
  <separator name="electronic exchange-correlation" >
   <i type="string" name="GGA">PS</i>
   <i type="int" name="VOSKOWN">     0</i>
   <i type="logical" name="LHFCALC"> F  </i>
   <i type="string" name="PRECFOCK"></i>
   <i type="logical" name="LSYMGRAD"> F  </i>
   <i type="logical" name="LHFONE"> F  </i>
   <i type="logical" name="LRHFCALC"> F  </i>
   <i type="logical" name="LTHOMAS"> F  </i>
   <i type="logical" name="LMODELHF"> F  </i>
   <i type="logical" name="LFOCKACE"> F  </i>
   <i name="ENCUT4O">     -1.00000000</i>
   <i type="int" name="EXXOEP">     0</i>
   <i type="int" name="FOURORBIT">     0</i>
   <i name="AEXX">      0.00000000</i>
   <i name="HFALPHA">      0.00000000</i>
   <i name="MCALPHA">      0.00000000</i>
   <i name="ALDAX">      1.00000000</i>
   <i name="AGGAX">      1.00000000</i>
   <i name="ALDAC">      1.00000000</i>
   <i name="AGGAC">      1.00000000</i>
   <i type="int" name="NKREDX">     1</i>
   <i type="int" name="NKREDY">     1</i>
   <i type="int" name="NKREDZ">     1</i>
   <i type="logical" name="SHIFTRED"> F  </i>
   <i type="logical" name="ODDONLY"> F  </i>
   <i type="logical" name="EVENONLY"> F  </i>
   <i type="int" name="LMAXFOCK">     0</i>
   <i type="int" name="NMAXFOCKAE">     0</i>
   <i type="logical" name="LFOCKAEDFT"> F  </i>
   <i name="HFSCREEN">      0.00000000</i>
   <i name="HFSCREENC">      0.00000000</i>
   <i type="int" name="NBANDSGWLOW">     0</i>
  </separator>
  <separator name="vdW DFT" >
   <i type="logical" name="LUSE_VDW"> F  </i>
   <i name="Zab_VDW">     -0.84910000</i>
   <i name="PARAM1">      0.12340000</i>
   <i name="PARAM2">      1.00000000</i>
   <i name="PARAM3">      0.00000000</i>
  </separator>
  <separator name="model GW" >
   <i type="int" name="MODEL_GW">     0</i>
   <i name="MODEL_EPS0">     12.04803503</i>
   <i name="MODEL_ALPHA">      1.00000000</i>
  </separator>
  <separator name="linear response parameters" >
   <i type="logical" name="LEPSILON"> F  </i>
   <i type="logical" name="LRPA"> F  </i>
   <i type="logical" name="LNABLA"> F  </i>
   <i type="logical" name="LVEL"> F  </i>
   <i name="CSHIFT">      0.10000000</i>
   <i name="OMEGAMAX">     -1.00000000</i>
   <i name="DEG_THRESHOLD">      0.00200000</i>
   <i name="RTIME">     -0.10000000</i>
   <i name="WPLASMAI">      0.00000000</i>
   <v name="DFIELD">      0.00000000      0.00000000      0.00000000</v>
   <v name="WPLASMA">      0.00000000      0.00000000      0.00000000      0.00000000      0.00000000      0.00000000      0.00000000      0.00000000      0.00000000</v>
  </separator>
  <separator name="orbital magnetization" >
   <i type="logical" name="NUCIND"> F  </i>
   <v name="MAGPOS">      0.00000000      0.00000000      0.00000000</v>
   <i type="logical" name="LNICSALL"> T  </i>
   <i type="logical" name="ORBITALMAG"> F  </i>
   <i type="logical" name="LMAGBLOCH"> F  </i>
   <i type="logical" name="LCHIMAG"> F  </i>
   <i type="logical" name="LGAUGE"> T  </i>
   <i type="int" name="MAGATOM">     0</i>
   <v name="MAGDIPOL">      0.00000000      0.00000000      0.00000000</v>
   <v name="AVECCONST">      0.00000000      0.00000000      0.00000000</v>
  </separator>
  <separator name="response functions" >
   <i type="logical" name="LFINITE_TEMPERATURE"> F  </i>
   <i type="logical" name="LADDER"> F  </i>
   <i type="logical" name="LRPAFORCE"> F  </i>
   <i type="logical" name="LFXC"> F  </i>
   <i type="logical" name="LHARTREE"> T  </i>
   <i type="int" name="IBSE">     0</i>
   <v type="int" name="KPOINT">    -1     0     0     0</v>
   <i type="logical" name="LTCTC"> F  </i>
   <i type="logical" name="LTCTE"> F  </i>
   <i type="logical" name="LTETE"> F  </i>
   <i type="logical" name="LTRIPLET"> F  </i>
   <i type="logical" name="LFXCEPS"> F  </i>
   <i type="logical" name="LFXHEG"> F  </i>
   <i type="int" name="NATURALO">     2</i>
   <i type="logical" name="LHOLEGF"> F  </i>
   <i type="logical" name="L2ORDER"> F  </i>
   <i type="logical" name="LDMP1"> F  </i>
   <i type="logical" name="LMP2LT"> F  </i>
   <i type="logical" name="LSMP2LT"> F  </i>
   <i type="logical" name="LGWLF"> F  </i>
   <i name="ENCUTGW">     -2.00000000</i>
   <i name="ENCUTGWSOFT">     -2.00000000</i>
   <i name="ENCUTLF">     -1.00000000</i>
   <i type="logical" name="LESF_SPLINES"> F  </i>
   <i type="int" name="LMAXMP2">    -1</i>
   <i name="SCISSOR">      0.00000000</i>
   <i type="int" name="NOMEGA">     0</i>
   <i type="int" name="NOMEGAR">     0</i>
   <i type="int" name="NBANDSGW">    -1</i>
   <i type="int" name="NBANDSO">    -1</i>
   <i type="int" name="NBANDSV">    -1</i>
   <i type="int" name="NELMGW">     1</i>
   <i type="int" name="NELMHF">     1</i>
   <i type="int" name="DIM">     3</i>
   <i type="int" name="IESPILON">     4</i>
   <i type="int" name="ANTIRES">     0</i>
   <i name="OMEGAMAX">    -30.00000000</i>
   <i name="OMEGAMIN">    -30.00000000</i>
   <i name="OMEGATL">   -200.00000000</i>
   <i type="int" name="OMEGAGRID">     0</i>
   <i name="CSHIFT">     -0.10000000</i>
   <i type="logical" name="LSELFENERGY"> F  </i>
   <i type="logical" name="LSPECTRAL"> F  </i>
   <i type="logical" name="LSPECTRALGW"> F  </i>
   <i type="logical" name="LSINGLES"> F  </i>
   <i type="logical" name="LFERMIGW"> F  </i>
   <i type="logical" name="ODDONLYGW"> F  </i>
   <i type="logical" name="EVENONLYGW"> F  </i>
   <i type="int" name="NKREDLFX">     1</i>
   <i type="int" name="NKREDLFY">     1</i>
   <i type="int" name="NKREDLFZ">     1</i>
   <i type="int" name="MAXMEM">  2800</i>
   <i type="int" name="TELESCOPE">     0</i>
   <i type="int" name="NTAUPAR">    -1</i>
   <i type="int" name="NOMEGAPAR">    -1</i>
   <i name="DAMP_NEWTON">      0.80000001</i>
   <i name="LAMBDA">      1.00000000</i>
  </separator>
  <separator name="External order field" >
   <i name="OFIELD_KAPPA">      0.00000000</i>
   <v name="OFIELD_K">      0.00000000      0.00000000      0.00000000</v>
   <i name="OFIELD_Q6_NEAR">      0.00000000</i>
   <i name="OFIELD_Q6_FAR">      0.00000000</i>
   <i name="OFIELD_A">      0.00000000</i>
  </separator>
  <separator name="optional k-points parameters" >
   <i type="int" name="KPOINTS_OPT_MODE">     1</i>
   <i type="logical" name="LKPOINTS_OPT"> F  </i>
  </separator>
 </parameters>
 <atominfo>
  <atoms>       2 </atoms>
  <types>       1 </types>
  <array name="atoms" >
   <dimension dim="1">ion</dimension>
   <field type="string">element</field>
   <field type="int">atomtype</field>
   <set>
    <rc><c>Si</c><c>   1</c></rc>
    <rc><c>Si</c><c>   1</c></rc>
   </set>
  </array>
  <array name="atomtypes" >
   <dimension dim="1">type</dimension>
   <field type="int">atomspertype</field>
   <field type="string">element</field>
   <field>mass</field>
   <field>valence</field>
   <field type="string">pseudopotential</field>
   <set>
    <rc><c>   2</c><c>Si</c><c>     28.08500000</c><c>      4.00000000</c><c>  PAW_PBE Si 05Jan2001                  </c></rc>
   </set>
  </array>
 </atominfo>
 <structure name="initialpos" >
  <crystal>
   <varray name="basis" >
    <v>      -0.00000000       2.71803466       2.71803466 </v>
    <v>       2.71803466      -0.00000000       2.71803466 </v>
    <v>       2.71803466       2.71803466      -0.00000000 </v>
   </varray>
   <i name="volume">     40.16011677 </i>
   <varray name="rec_basis" >
    <v>      -0.18395645       0.18395645       0.18395645 </v>
    <v>       0.18395645      -0.18395645       0.18395645 </v>
    <v>       0.18395645       0.18395645      -0.18395645 </v>
   </varray>
  </crystal>
  <varray name="positions" >
   <v>       0.00000000       0.00000000       0.00000000 </v>
   <v>       0.25000000       0.25000000       0.25000000 </v>
  </varray>
 </structure>
 <calculation>
  <scstep>
   <time name="dav">    0.18    0.18</time>
   <time name="total">    0.71    0.72</time>
   <energy>
    <i name="alphaZ">      3.35289172 </i>
    <i name="ewald">   -228.30833595 </i>
    <i name="hartreedc">    -11.05143515 </i>
    <i name="XCdc">    -17.46719493 </i>
    <i name="pawpsdc">    174.95707044 </i>
    <i name="pawaedc">   -140.38057629 </i>
    <i name="eentropy">      0.00000000 </i>
    <i name="bandstr">     23.39662321 </i>
    <i name="atom">    205.15160006 </i>
    <i name="e_fr_energy">      9.65064310 </i>
    <i name="e_wo_entrp">      9.65064310 </i>
    <i name="e_0_energy">      9.65064310 </i>
   </energy>
  </scstep>
  <scstep>
   <time name="dav">    0.26    0.27</time>
   <time name="total">    0.27    0.27</time>
   <energy>
    <i name="e_fr_energy">    -11.36096260 </i>
    <i name="e_wo_entrp">    -11.36096260 </i>
    <i name="e_0_energy">    -11.36096260 </i>
   </energy>
  </scstep>
  <scstep>
   <time name="dav">    0.25    0.25</time>
   <time name="total">    0.26    0.26</time>
   <energy>
    <i name="e_fr_energy">    -11.70517367 </i>
    <i name="e_wo_entrp">    -11.70517367 </i>
    <i name="e_0_energy">    -11.70517367 </i>
   </energy>
  </scstep>
  <scstep>
   <time name="dav">    0.29    0.29</time>
   <time name="total">    0.29    0.29</time>
   <energy>
    <i name="e_fr_energy">    -11.70689694 </i>
    <i name="e_wo_entrp">    -11.70689694 </i>
    <i name="e_0_energy">    -11.70689694 </i>
   </energy>
  </scstep>
  <scstep>
   <time name="dav">    0.24    0.24</time>
   <time name="total">    0.30    0.30</time>
   <energy>
    <i name="e_fr_energy">    -11.70690116 </i>
    <i name="e_wo_entrp">    -11.70690116 </i>
    <i name="e_0_energy">    -11.70690116 </i>
   </energy>
  </scstep>
  <scstep>
   <time name="diag">    0.18    0.18</time>
   <time name="diis">    0.10    0.10</time>
   <time name="orth">    0.00    0.00</time>
   <time name="total">    0.99    0.99</time>
   <energy>
    <i name="e_fr_energy">    -11.55251314 </i>
    <i name="e_wo_entrp">    -11.55251314 </i>
    <i name="e_0_energy">    -11.55251314 </i>
   </energy>
  </scstep>
  <scstep>
   <time name="diag">    0.15    0.15</time>
   <time name="diis">    0.11    0.15</time>
   <time name="orth">    0.00    0.00</time>
   <time name="total">    0.98    1.03</time>
   <energy>
    <i name="e_fr_energy">    -11.48184356 </i>
    <i name="e_wo_entrp">    -11.48184356 </i>
    <i name="e_0_energy">    -11.48184356 </i>
   </energy>
  </scstep>
  <scstep>
   <time name="diag">    0.15    0.15</time>
   <time name="diis">    0.10    0.10</time>
   <time name="orth">    0.00    0.00</time>
   <time name="total">    0.95    0.95</time>
   <energy>
    <i name="e_fr_energy">    -11.48284515 </i>
    <i name="e_wo_entrp">    -11.48284515 </i>
    <i name="e_0_energy">    -11.48284515 </i>
   </energy>
  </scstep>
  <scstep>
   <time name="diag">    0.14    0.14</time>
   <time name="diis">    0.10    0.10</time>
   <time name="orth">    0.00    0.00</time>
   <time name="total">    0.94    0.94</time>
   <energy>
    <i name="e_fr_energy">    -11.48304123 </i>
    <i name="e_wo_entrp">    -11.48304123 </i>
    <i name="e_0_energy">    -11.48304123 </i>
   </energy>
  </scstep>
  <scstep>
   <time name="diag">    0.14    0.14</time>
   <time name="diis">    0.10    0.10</time>
   <time name="orth">    0.00    0.00</time>
   <time name="total">    0.94    0.94</time>
   <energy>
    <i name="e_fr_energy">    -11.48308347 </i>
    <i name="e_wo_entrp">    -11.48308347 </i>
    <i name="e_0_energy">    -11.48308347 </i>
   </energy>
  </scstep>
  <scstep>
   <time name="diag">    0.14    0.14</time>
   <time name="diis">    0.12    0.12</time>
   <time name="orth">    0.00    0.00</time>
   <time name="total">    0.95    0.96</time>
   <energy>
    <i name="e_fr_energy">    -11.48309577 </i>
    <i name="e_wo_entrp">    -11.48309577 </i>
    <i name="e_0_energy">    -11.48309577 </i>
   </energy>
  </scstep>
  <scstep>
   <time name="diag">    0.15    0.15</time>
   <time name="diis">    0.09    0.09</time>
   <time name="orth">    0.00    0.00</time>
   <time name="total">    0.87    0.87</time>
   <energy>
    <i name="alphaZ">      3.35289172 </i>
    <i name="ewald">   -228.30833595 </i>
    <i name="hartreedc">    -14.67728158 </i>
    <i name="XCdc">    -16.85819372 </i>
    <i name="pawpsdc">    868.11408652 </i>
    <i name="pawaedc">   -833.75083228 </i>
    <i name="eentropy">      0.00000000 </i>
    <i name="bandstr">      5.49296757 </i>
    <i name="atom">    205.15160006 </i>
    <i name="e_fr_energy">    -11.48309765 </i>
    <i name="e_wo_entrp">    -11.48309765 </i>
    <i name="e_0_energy">    -11.48309765 </i>
   </energy>
  </scstep>
  <structure>
   <crystal>
    <varray name="basis" >
     <v>      -0.00000000       2.71803466       2.71803466 </v>
     <v>       2.71803466      -0.00000000       2.71803466 </v>
     <v>       2.71803466       2.71803466      -0.00000000 </v>
    </varray>
    <i name="volume">     40.16011677 </i>
    <varray name="rec_basis" >
     <v>      -0.18395645       0.18395645       0.18395645 </v>
     <v>       0.18395645      -0.18395645       0.18395645 </v>
     <v>       0.18395645       0.18395645      -0.18395645 </v>
    </varray>
   </crystal>
   <varray name="positions" >
    <v>       0.00000000       0.00000000       0.00000000 </v>
    <v>       0.25000000       0.25000000       0.25000000 </v>
   </varray>
  </structure>
  <varray name="forces" >
   <v>       0.00000000       0.00000000       0.00000000 </v>
   <v>      -0.00000000      -0.00000000      -0.00000000 </v>
  </varray>
  <varray name="stress" >
   <v>       0.06002131      -0.00000000      -0.00000000 </v>
   <v>      -0.00000000       0.06002131       0.00000000 </v>
   <v>      -0.00000000      -0.00000000       0.06002131 </v>
  </varray>
  <energy>
   <i name="e_fr_energy">    -11.48309765 </i>
   <i name="e_wo_entrp">    -11.48309765 </i>
   <i name="e_0_energy">    -11.48309765 </i>
  </energy>
  <time name="totalsc">    9.81    9.87</time>
  <eigenvalues>
   <array>
    <dimension dim="1">band</dimension>
    <dimension dim="2">kpoint</dimension>
    <dimension dim="3">spin</dimension>
    <field>eigene</field>
    <field>occ</field>
    <set>
     <set comment="spin 1">
      <set comment="kpoint 1">
       <r>   -6.2063    1.0000 </r>
       <r>    5.7647    1.0000 </r>
       <r>    5.7647    1.0000 </r>
       <r>    5.7647    1.0000 </r>
       <r>    8.2787    0.0000 </r>
       <r>    8.2787    0.0000 </r>
       <r>    8.2787    0.0000 </r>
       <r>    9.0551    0.0000 </r>
      </set>
      <set comment="kpoint 2">
       <r>   -5.9398    1.0000 </r>
       <r>    3.8179    1.0000 </r>
       <r>    5.4040    1.0000 </r>
       <r>    5.4040    1.0000 </r>
       <r>    8.1364    0.0000 </r>
       <r>    8.8031    0.0000 </r>
       <r>    8.8031    0.0000 </r>
       <r>   10.7206    0.0000 </r>
      </set>
      <set comment="kpoint 3">
       <r>   -5.1711    1.0000 </r>
       <r>    1.1891    1.0000 </r>
       <r>    4.8874    1.0000 </r>
       <r>    4.8874    1.0000 </r>
       <r>    7.5886    0.0000 </r>
       <r>    9.2448    0.0000 </r>
       <r>    9.2448    0.0000 </r>
       <r>   13.1159    0.0000 </r>
      </set>
      <set comment="kpoint 4">
       <r>   -4.1229    1.0000 </r>
       <r>   -0.8523    1.0000 </r>
       <r>    4.5997    1.0000 </r>
       <r>    4.5997    1.0000 </r>
       <r>    7.2608    0.0000 </r>
       <r>    9.0786    0.0000 </r>
       <r>    9.0786    0.0000 </r>
       <r>   13.3375    0.0000 </r>
      </set>
      <set comment="kpoint 5">
       <r>   -5.8497    1.0000 </r>
       <r>    4.1285    1.0000 </r>
       <r>    4.7809    1.0000 </r>
       <r>    4.7809    1.0000 </r>
       <r>    7.5697    0.0000 </r>
       <r>    9.6945    0.0000 </r>
       <r>    9.6945    0.0000 </r>
       <r>   10.1201    0.0000 </r>
      </set>
      <set comment="kpoint 6">
       <r>   -5.2413    1.0000 </r>
       <r>    1.9940    1.0000 </r>
       <r>    4.1926    1.0000 </r>
       <r>    4.2369    1.0000 </r>
       <r>    7.7615    0.0000 </r>
       <r>    9.6210    0.0000 </r>
       <r>   10.2254    0.0000 </r>
       <r>   10.4725    0.0000 </r>
      </set>
      <set comment="kpoint 7">
       <r>   -4.2272    1.0000 </r>
       <r>   -0.2024    1.0000 </r>
       <r>    3.4989    1.0000 </r>
       <r>    4.0499    1.0000 </r>
       <r>    7.8192    0.0000 </r>
       <r>    9.5246    0.0000 </r>
       <r>   10.2388    0.0000 </r>
       <r>   11.4602    0.0000 </r>
      </set>
      <set comment="kpoint 8">
       <r>   -3.6616    1.0000 </r>
       <r>   -1.0753    1.0000 </r>
       <r>    3.0809    1.0000 </r>
       <r>    4.2514    1.0000 </r>
       <r>    7.9240    0.0000 </r>
       <r>    9.4207    0.0000 </r>
       <r>    9.8362    0.0000 </r>
       <r>   13.8236    0.0000 </r>
      </set>
      <set comment="kpoint 9">
       <r>   -4.5980    1.0000 </r>
       <r>    0.4819    1.0000 </r>
       <r>    3.0809    1.0000 </r>
       <r>    4.7702    1.0000 </r>
       <r>    8.3430    0.0000 </r>
       <r>    9.6060    0.0000 </r>
       <r>    9.6184    0.0000 </r>
       <r>   12.3244    0.0000 </r>
      </set>
      <set comment="kpoint 10">
       <r>   -5.5025    1.0000 </r>
       <r>    2.6169    1.0000 </r>
       <r>    3.7698    1.0000 </r>
       <r>    5.3680    1.0000 </r>
       <r>    8.7689    0.0000 </r>
       <r>    9.0093    0.0000 </r>
       <r>    9.2523    0.0000 </r>
       <r>   11.3133    0.0000 </r>
      </set>
      <set comment="kpoint 11">
       <r>   -4.7966    1.0000 </r>
       <r>    1.6035    1.0000 </r>
       <r>    3.6109    1.0000 </r>
       <r>    3.6109    1.0000 </r>
       <r>    6.5950    0.0000 </r>
       <r>    8.2601    0.0000 </r>
       <r>   12.1118    0.0000 </r>
       <r>   12.1118    0.0000 </r>
      </set>
      <set comment="kpoint 12">
       <r>   -3.8908    1.0000 </r>
       <r>    0.0973    1.0000 </r>
       <r>    2.6122    1.0000 </r>
       <r>    3.3511    1.0000 </r>
       <r>    6.8733    0.0000 </r>
       <r>    8.3619    0.0000 </r>
       <r>   12.3275    0.0000 </r>
       <r>   12.4918    0.0000 </r>
      </set>
      <set comment="kpoint 13">
       <r>   -2.9641    1.0000 </r>
       <r>   -1.0915    1.0000 </r>
       <r>    1.6459    1.0000 </r>
       <r>    3.5221    1.0000 </r>
       <r>    7.1097    0.0000 </r>
       <r>   10.6148    0.0000 </r>
       <r>   11.9840    0.0000 </r>
       <r>   12.0607    0.0000 </r>
      </set>
      <set comment="kpoint 14">
       <r>   -3.6193    1.0000 </r>
       <r>   -0.3358    1.0000 </r>
       <r>    1.5682    1.0000 </r>
       <r>    4.0761    1.0000 </r>
       <r>    7.7294    0.0000 </r>
       <r>   11.1697    0.0000 </r>
       <r>   11.4720    0.0000 </r>
       <r>   12.2997    0.0000 </r>
      </set>
      <set comment="kpoint 15">
       <r>   -3.1054    1.0000 </r>
       <r>   -0.9002    1.0000 </r>
       <r>    2.9777    1.0000 </r>
       <r>    2.9777    1.0000 </r>
       <r>    6.2239    0.0000 </r>
       <r>    6.7330    0.0000 </r>
       <r>   14.7552    0.0000 </r>
       <r>   14.7553    0.0000 </r>
      </set>
      <set comment="kpoint 16">
       <r>   -2.1485    1.0000 </r>
       <r>   -1.8631    1.0000 </r>
       <r>    2.0581    1.0000 </r>
       <r>    3.0399    1.0000 </r>
       <r>    6.5229    0.0000 </r>
       <r>    7.8027    0.0000 </r>
       <r>   14.5459    0.0000 </r>
       <r>   14.9936    0.0000 </r>
      </set>
      <set comment="kpoint 17">
       <r>   -4.4862    1.0000 </r>
       <r>    0.8618    1.0000 </r>
       <r>    2.6123    1.0000 </r>
       <r>    3.9598    1.0000 </r>
       <r>    8.2698    0.0000 </r>
       <r>    9.4996    0.0000 </r>
       <r>    9.8406    0.0000 </r>
       <r>   11.8563    0.0000 </r>
      </set>
      <set comment="kpoint 18">
       <r>   -3.4370    1.0000 </r>
       <r>   -0.6806    1.0000 </r>
       <r>    2.0389    1.0000 </r>
       <r>    3.4141    1.0000 </r>
       <r>    8.7454    0.0000 </r>
       <r>    9.1687    0.0000 </r>
       <r>   11.1536    0.0000 </r>
       <r>   12.3021    0.0000 </r>
      </set>
      <set comment="kpoint 19">
       <r>   -2.8973    1.0000 </r>
       <r>   -0.9839    1.0000 </r>
       <r>    2.1256    1.0000 </r>
       <r>    2.5411    1.0000 </r>
       <r>    7.8839    0.0000 </r>
       <r>    8.2414    0.0000 </r>
       <r>   11.8514    0.0000 </r>
       <r>   14.3715    0.0000 </r>
      </set>
      <set comment="kpoint 20">
       <r>   -2.4542    1.0000 </r>
       <r>   -1.3837    1.0000 </r>
       <r>    1.4730    1.0000 </r>
       <r>    2.6338    1.0000 </r>
       <r>    8.4086    0.0000 </r>
       <r>   10.5093    0.0000 </r>
       <r>   11.3509    0.0000 </r>
       <r>   11.4751    0.0000 </r>
      </set>
     </set>
     <set comment="spin 2">
      <set comment="kpoint 1">
       <r>   -6.2063    1.0000 </r>
       <r>    5.7647    1.0000 </r>
       <r>    5.7647    1.0000 </r>
       <r>    5.7647    1.0000 </r>
       <r>    8.2787    0.0000 </r>
       <r>    8.2787    0.0000 </r>
       <r>    8.2787    0.0000 </r>
       <r>    9.0551    0.0000 </r>
      </set>
      <set comment="kpoint 2">
       <r>   -5.9398    1.0000 </r>
       <r>    3.8179    1.0000 </r>
       <r>    5.4040    1.0000 </r>
       <r>    5.4040    1.0000 </r>
       <r>    8.1364    0.0000 </r>
       <r>    8.8031    0.0000 </r>
       <r>    8.8031    0.0000 </r>
       <r>   10.7206    0.0000 </r>
      </set>
      <set comment="kpoint 3">
       <r>   -5.1711    1.0000 </r>
       <r>    1.1891    1.0000 </r>
       <r>    4.8874    1.0000 </r>
       <r>    4.8874    1.0000 </r>
       <r>    7.5886    0.0000 </r>
       <r>    9.2448    0.0000 </r>
       <r>    9.2448    0.0000 </r>
       <r>   13.1263    0.0000 </r>
      </set>
      <set comment="kpoint 4">
       <r>   -4.1229    1.0000 </r>
       <r>   -0.8523    1.0000 </r>
       <r>    4.5997    1.0000 </r>
       <r>    4.5997    1.0000 </r>
       <r>    7.2608    0.0000 </r>
       <r>    9.0786    0.0000 </r>
       <r>    9.0786    0.0000 </r>
       <r>   13.3375    0.0000 </r>
      </set>
      <set comment="kpoint 5">
       <r>   -5.8497    1.0000 </r>
       <r>    4.1285    1.0000 </r>
       <r>    4.7809    1.0000 </r>
       <r>    4.7809    1.0000 </r>
       <r>    7.5697    0.0000 </r>
       <r>    9.6945    0.0000 </r>
       <r>    9.6945    0.0000 </r>
       <r>   10.1201    0.0000 </r>
      </set>
      <set comment="kpoint 6">
       <r>   -5.2413    1.0000 </r>
       <r>    1.9940    1.0000 </r>
       <r>    4.1927    1.0000 </r>
       <r>    4.2369    1.0000 </r>
       <r>    7.7615    0.0000 </r>
       <r>    9.6211    0.0000 </r>
       <r>   10.2254    0.0000 </r>
       <r>   10.4725    0.0000 </r>
      </set>
      <set comment="kpoint 7">
       <r>   -4.2272    1.0000 </r>
       <r>   -0.2024    1.0000 </r>
       <r>    3.4989    1.0000 </r>
       <r>    4.0499    1.0000 </r>
       <r>    7.8192    0.0000 </r>
       <r>    9.5246    0.0000 </r>
       <r>   10.2388    0.0000 </r>
       <r>   11.4602    0.0000 </r>
      </set>
      <set comment="kpoint 8">
       <r>   -3.6616    1.0000 </r>
       <r>   -1.0753    1.0000 </r>
       <r>    3.0809    1.0000 </r>
       <r>    4.2514    1.0000 </r>
       <r>    7.9240    0.0000 </r>
       <r>    9.4207    0.0000 </r>
       <r>    9.8362    0.0000 </r>
       <r>   13.8235    0.0000 </r>
      </set>
      <set comment="kpoint 9">
       <r>   -4.5980    1.0000 </r>
       <r>    0.4819    1.0000 </r>
       <r>    3.0809    1.0000 </r>
       <r>    4.7702    1.0000 </r>
       <r>    8.3430    0.0000 </r>
       <r>    9.6060    0.0000 </r>
       <r>    9.6184    0.0000 </r>
       <r>   12.3249    0.0000 </r>
      </set>
      <set comment="kpoint 10">
       <r>   -5.5025    1.0000 </r>
       <r>    2.6169    1.0000 </r>
       <r>    3.7698    1.0000 </r>
       <r>    5.3680    1.0000 </r>
       <r>    8.7689    0.0000 </r>
       <r>    9.0093    0.0000 </r>
       <r>    9.2523    0.0000 </r>
       <r>   11.3134    0.0000 </r>
      </set>
      <set comment="kpoint 11">
       <r>   -4.7966    1.0000 </r>
       <r>    1.6035    1.0000 </r>
       <r>    3.6109    1.0000 </r>
       <r>    3.6109    1.0000 </r>
       <r>    6.5950    0.0000 </r>
       <r>    8.2602    0.0000 </r>
       <r>   12.1118    0.0000 </r>
       <r>   12.1118    0.0000 </r>
      </set>
      <set comment="kpoint 12">
       <r>   -3.8908    1.0000 </r>
       <r>    0.0973    1.0000 </r>
       <r>    2.6122    1.0000 </r>
       <r>    3.3511    1.0000 </r>
       <r>    6.8733    0.0000 </r>
       <r>    8.3619    0.0000 </r>
       <r>   12.3275    0.0000 </r>
       <r>   12.4918    0.0000 </r>
      </set>
      <set comment="kpoint 13">
       <r>   -2.9641    1.0000 </r>
       <r>   -1.0915    1.0000 </r>
       <r>    1.6459    1.0000 </r>
       <r>    3.5221    1.0000 </r>
       <r>    7.1097    0.0000 </r>
       <r>   10.6148    0.0000 </r>
       <r>   11.9840    0.0000 </r>
       <r>   12.0607    0.0000 </r>
      </set>
      <set comment="kpoint 14">
       <r>   -3.6193    1.0000 </r>
       <r>   -0.3358    1.0000 </r>
       <r>    1.5682    1.0000 </r>
       <r>    4.0761    1.0000 </r>
       <r>    7.7294    0.0000 </r>
       <r>   11.1696    0.0000 </r>
       <r>   11.4720    0.0000 </r>
       <r>   12.2992    0.0000 </r>
      </set>
      <set comment="kpoint 15">
       <r>   -3.1054    1.0000 </r>
       <r>   -0.9002    1.0000 </r>
       <r>    2.9777    1.0000 </r>
       <r>    2.9777    1.0000 </r>
       <r>    6.2239    0.0000 </r>
       <r>    6.7330    0.0000 </r>
       <r>   14.7552    0.0000 </r>
       <r>   14.7554    0.0000 </r>
      </set>
      <set comment="kpoint 16">
       <r>   -2.1485    1.0000 </r>
       <r>   -1.8631    1.0000 </r>
       <r>    2.0581    1.0000 </r>
       <r>    3.0399    1.0000 </r>
       <r>    6.5229    0.0000 </r>
       <r>    7.8027    0.0000 </r>
       <r>   14.5313    0.0000 </r>
       <r>   14.9792    0.0000 </r>
      </set>
      <set comment="kpoint 17">
       <r>   -4.4862    1.0000 </r>
       <r>    0.8618    1.0000 </r>
       <r>    2.6123    1.0000 </r>
       <r>    3.9598    1.0000 </r>
       <r>    8.2698    0.0000 </r>
       <r>    9.4996    0.0000 </r>
       <r>    9.8406    0.0000 </r>
       <r>   11.8563    0.0000 </r>
      </set>
      <set comment="kpoint 18">
       <r>   -3.4370    1.0000 </r>
       <r>   -0.6806    1.0000 </r>
       <r>    2.0389    1.0000 </r>
       <r>    3.4141    1.0000 </r>
       <r>    8.7454    0.0000 </r>
       <r>    9.1687    0.0000 </r>
       <r>   11.1536    0.0000 </r>
       <r>   12.3022    0.0000 </r>
      </set>
      <set comment="kpoint 19">
       <r>   -2.8973    1.0000 </r>
       <r>   -0.9839    1.0000 </r>
       <r>    2.1256    1.0000 </r>
       <r>    2.5411    1.0000 </r>
       <r>    7.8839    0.0000 </r>
       <r>    8.2414    0.0000 </r>
       <r>   11.8514    0.0000 </r>
       <r>   14.3707    0.0000 </r>
      </set>
      <set comment="kpoint 20">
       <r>   -2.4542    1.0000 </r>
       <r>   -1.3837    1.0000 </r>
       <r>    1.4730    1.0000 </r>
       <r>    2.6338    1.0000 </r>
       <r>    8.4086    0.0000 </r>
       <r>   10.5093    0.0000 </r>
       <r>   11.3510    0.0000 </r>
       <r>   11.4751    0.0000 </r>
      </set>
     </set>
    </set>
   </array>
  </eigenvalues>
  <separator name="orbital magnetization" >
   <v name="MAGDIPOLOUT">      0.00000000      0.00000000      0.00000000</v>
  </separator>
  <dos>
   <i name="efermi">      5.76486865 </i>
   <total>
    <array>
     <dimension dim="1">gridpoints</dimension>
     <dimension dim="2">spin</dimension>
     <field>energy</field>
     <field>total</field>
     <field>integrated</field>
     <set>
      <set comment="spin 1">
       <r>    -7.2663     0.0000     0.0000 </r>
       <r>    -7.1886     0.0000     0.0000 </r>
       <r>    -7.1109     0.0000     0.0000 </r>
       <r>    -7.0331     0.0000     0.0000 </r>
       <r>    -6.9554     0.0000     0.0000 </r>
       <r>    -6.8777     0.0000     0.0000 </r>
       <r>    -6.7999     0.0000     0.0000 </r>
       <r>    -6.7222     0.0000     0.0000 </r>
       <r>    -6.6445     0.0000     0.0000 </r>
       <r>    -6.5667     0.0000     0.0000 </r>
       <r>    -6.4890     0.0000     0.0000 </r>
       <r>    -6.4113     0.0000     0.0000 </r>
       <r>    -6.3335     0.0000     0.0000 </r>
       <r>    -6.2558     0.0000     0.0000 </r>
       <r>    -6.1781     0.0011     0.0000 </r>
       <r>    -6.1003     0.0155     0.0005 </r>
       <r>    -6.0226     0.0466     0.0029 </r>
       <r>    -5.9449     0.0944     0.0082 </r>
       <r>    -5.8671     0.0850     0.0152 </r>
       <r>    -5.7894     0.0956     0.0222 </r>
       <r>    -5.7117     0.1077     0.0301 </r>
       <r>    -5.6339     0.1205     0.0389 </r>
       <r>    -5.5562     0.1340     0.0488 </r>
       <r>    -5.4785     0.1478     0.0598 </r>
       <r>    -5.4007     0.1591     0.0717 </r>
       <r>    -5.3230     0.1666     0.0844 </r>
       <r>    -5.2453     0.1705     0.0975 </r>
       <r>    -5.1675     0.1772     0.1110 </r>
       <r>    -5.0898     0.1864     0.1251 </r>
       <r>    -5.0121     0.1958     0.1400 </r>
       <r>    -4.9343     0.2055     0.1556 </r>
       <r>    -4.8566     0.2154     0.1720 </r>
       <r>    -4.7789     0.2256     0.1891 </r>
       <r>    -4.7011     0.2361     0.2070 </r>
       <r>    -4.6234     0.2469     0.2258 </r>
       <r>    -4.5457     0.2559     0.2454 </r>
       <r>    -4.4679     0.2668     0.2657 </r>
       <r>    -4.3902     0.2794     0.2869 </r>
       <r>    -4.3125     0.2932     0.3091 </r>
       <r>    -4.2347     0.3082     0.3325 </r>
       <r>    -4.1570     0.3281     0.3572 </r>
       <r>    -4.0793     0.3688     0.3840 </r>
       <r>    -4.0015     0.4079     0.4143 </r>
       <r>    -3.9238     0.4316     0.4470 </r>
       <r>    -3.8461     0.4400     0.4810 </r>
       <r>    -3.7683     0.4327     0.5150 </r>
       <r>    -3.6906     0.4097     0.5479 </r>
       <r>    -3.6129     0.4298     0.5797 </r>
       <r>    -3.5351     0.4545     0.6144 </r>
       <r>    -3.4574     0.4314     0.6492 </r>
       <r>    -3.3797     0.3991     0.6812 </r>
       <r>    -3.3019     0.3773     0.7114 </r>
       <r>    -3.2242     0.3590     0.7400 </r>
       <r>    -3.1465     0.3442     0.7673 </r>
       <r>    -3.0687     0.3344     0.7936 </r>
       <r>    -2.9910     0.3289     0.8194 </r>
       <r>    -2.9133     0.3214     0.8447 </r>
       <r>    -2.8355     0.3301     0.8699 </r>
       <r>    -2.7578     0.3316     0.8957 </r>
       <r>    -2.6801     0.3186     0.9211 </r>
       <r>    -2.6023     0.2911     0.9449 </r>
       <r>    -2.5246     0.2492     0.9659 </r>
       <r>    -2.4469     0.1530     0.9856 </r>
       <r>    -2.3691     0.0746     0.9929 </r>
       <r>    -2.2914     0.0413     0.9974 </r>
       <r>    -2.2137     0.0156     0.9995 </r>
       <r>    -2.1359     0.0000     1.0000 </r>
       <r>    -2.0582     0.0000     1.0000 </r>
       <r>    -1.9805     0.0000     1.0000 </r>
       <r>    -1.9027     0.0000     1.0000 </r>
       <r>    -1.8250     0.0068     1.0001 </r>
       <r>    -1.7473     0.0238     1.0013 </r>
       <r>    -1.6695     0.0450     1.0039 </r>
       <r>    -1.5918     0.0704     1.0084 </r>
       <r>    -1.5141     0.1000     1.0150 </r>
       <r>    -1.4364     0.1338     1.0241 </r>
       <r>    -1.3586     0.3064     1.0411 </r>
       <r>    -1.2809     0.3294     1.0645 </r>
       <r>    -1.2032     0.3766     1.0920 </r>
       <r>    -1.1254     0.4106     1.1227 </r>
       <r>    -1.0477     0.5557     1.1575 </r>
       <r>    -0.9700     0.7464     1.2093 </r>
       <r>    -0.8922     0.7763     1.2696 </r>
       <r>    -0.8145     0.6975     1.3267 </r>
       <r>    -0.7368     0.5845     1.3770 </r>
       <r>    -0.6590     0.4399     1.4160 </r>
       <r>    -0.5813     0.3915     1.4483 </r>
       <r>    -0.5036     0.3520     1.4771 </r>
       <r>    -0.4258     0.3213     1.5032 </r>
       <r>    -0.3481     0.2994     1.5273 </r>
       <r>    -0.2704     0.2840     1.5499 </r>
       <r>    -0.1926     0.2709     1.5715 </r>
       <r>    -0.1149     0.2590     1.5921 </r>
       <r>    -0.0372     0.2477     1.6118 </r>
       <r>     0.0406     0.2368     1.6306 </r>
       <r>     0.1183     0.2265     1.6486 </r>
       <r>     0.1960     0.2163     1.6658 </r>
       <r>     0.2738     0.2067     1.6822 </r>
       <r>     0.3515     0.1976     1.6980 </r>
       <r>     0.4292     0.1891     1.7130 </r>
       <r>     0.5070     0.1777     1.7273 </r>
       <r>     0.5847     0.1617     1.7405 </r>
       <r>     0.6624     0.1488     1.7525 </r>
       <r>     0.7402     0.1391     1.7637 </r>
       <r>     0.8179     0.1326     1.7743 </r>
       <r>     0.8956     0.1290     1.7844 </r>
       <r>     0.9734     0.1260     1.7943 </r>
       <r>     1.0511     0.1231     1.8040 </r>
       <r>     1.1288     0.1203     1.8135 </r>
       <r>     1.2066     0.1176     1.8227 </r>
       <r>     1.2843     0.1149     1.8318 </r>
       <r>     1.3620     0.1122     1.8406 </r>
       <r>     1.4398     0.1095     1.8492 </r>
       <r>     1.5175     0.2716     1.8642 </r>
       <r>     1.5952     0.5448     1.8942 </r>
       <r>     1.6730     0.5476     1.9369 </r>
       <r>     1.7507     0.5988     1.9817 </r>
       <r>     1.8284     0.6204     2.0293 </r>
       <r>     1.9062     0.6124     2.0774 </r>
       <r>     1.9839     0.5748     2.1237 </r>
       <r>     2.0616     0.5545     2.1662 </r>
       <r>     2.1394     0.4968     2.2125 </r>
       <r>     2.2171     0.4926     2.2510 </r>
       <r>     2.2948     0.4874     2.2891 </r>
       <r>     2.3726     0.4810     2.3267 </r>
       <r>     2.4503     0.4736     2.3638 </r>
       <r>     2.5280     0.4651     2.4003 </r>
       <r>     2.6058     0.8406     2.4484 </r>
       <r>     2.6835     0.6465     2.5064 </r>
       <r>     2.7612     0.6403     2.5548 </r>
       <r>     2.8390     0.6843     2.6062 </r>
       <r>     2.9167     0.7408     2.6615 </r>
       <r>     2.9944     0.9134     2.7227 </r>
       <r>     3.0722     0.7519     2.7875 </r>
       <r>     3.1499     0.7454     2.8457 </r>
       <r>     3.2276     0.7381     2.9034 </r>
       <r>     3.3054     0.7310     2.9605 </r>
       <r>     3.3831     0.7212     3.0170 </r>
       <r>     3.4608     0.7279     3.0732 </r>
       <r>     3.5386     0.7270     3.1298 </r>
       <r>     3.6163     0.7227     3.1862 </r>
       <r>     3.6940     0.7173     3.2422 </r>
       <r>     3.7718     0.7097     3.2976 </r>
       <r>     3.8495     0.6987     3.3524 </r>
       <r>     3.9272     0.6851     3.4062 </r>
       <r>     4.0050     0.6712     3.4590 </r>
       <r>     4.0827     0.6544     3.5105 </r>
       <r>     4.1604     0.6538     3.5612 </r>
       <r>     4.2382     0.6587     3.6123 </r>
       <r>     4.3159     0.6358     3.6629 </r>
       <r>     4.3936     0.5926     3.7107 </r>
       <r>     4.4714     0.5353     3.7547 </r>
       <r>     4.5491     0.4639     3.7936 </r>
       <r>     4.6268     0.3949     3.8266 </r>
       <r>     4.7045     0.3450     3.8555 </r>
       <r>     4.7823     0.2844     3.8800 </r>
       <r>     4.8600     0.2366     3.9001 </r>
       <r>     4.9377     0.2115     3.9174 </r>
       <r>     5.0155     0.1905     3.9330 </r>
       <r>     5.0932     0.1721     3.9471 </r>
       <r>     5.1709     0.1561     3.9598 </r>
       <r>     5.2487     0.1427     3.9714 </r>
       <r>     5.3264     0.1319     3.9821 </r>
       <r>     5.4041     0.0718     3.9914 </r>
       <r>     5.4819     0.0442     3.9958 </r>
       <r>     5.5596     0.0232     3.9984 </r>
       <r>     5.6373     0.0090     3.9996 </r>
       <r>     5.7151     0.0014     4.0000 </r>
       <r>     5.7928     0.0000     4.0000 </r>
       <r>     5.8705     0.0000     4.0000 </r>
       <r>     5.9483     0.0000     4.0000 </r>
       <r>     6.0260     0.0000     4.0000 </r>
       <r>     6.1037     0.0000     4.0000 </r>
       <r>     6.1815     0.0000     4.0000 </r>
       <r>     6.2592     0.0131     4.0002 </r>
       <r>     6.3369     0.0368     4.0022 </r>
       <r>     6.4147     0.0535     4.0058 </r>
       <r>     6.4924     0.0631     4.0103 </r>
       <r>     6.5701     0.0790     4.0157 </r>
       <r>     6.6479     0.1035     4.0228 </r>
       <r>     6.7256     0.1234     4.0317 </r>
       <r>     6.8033     0.1406     4.0419 </r>
       <r>     6.8811     0.1545     4.0534 </r>
       <r>     6.9588     0.1769     4.0663 </r>
       <r>     7.0365     0.1992     4.0809 </r>
       <r>     7.1143     0.2212     4.0972 </r>
       <r>     7.1920     0.2440     4.1153 </r>
       <r>     7.2697     0.2705     4.1352 </r>
       <r>     7.3475     0.3145     4.1579 </r>
       <r>     7.4252     0.3677     4.1844 </r>
       <r>     7.5029     0.4301     4.2153 </r>
       <r>     7.5807     0.5017     4.2515 </r>
       <r>     7.6584     0.5977     4.2939 </r>
       <r>     7.7361     0.7364     4.3455 </r>
       <r>     7.8139     0.8846     4.4090 </r>
       <r>     7.8916     0.9476     4.4807 </r>
       <r>     7.9693     0.9757     4.5552 </r>
       <r>     8.0471     1.0063     4.6323 </r>
       <r>     8.1248     1.0241     4.7113 </r>
       <r>     8.2025     0.9733     4.7892 </r>
       <r>     8.2803     0.9437     4.8634 </r>
       <r>     8.3580     0.8960     4.9355 </r>
       <r>     8.4357     0.7517     5.0019 </r>
       <r>     8.5135     0.5905     5.0526 </r>
       <r>     8.5912     0.4684     5.0937 </r>
       <r>     8.6689     0.3479     5.1254 </r>
       <r>     8.7467     0.2311     5.1478 </r>
       <r>     8.8244     0.2666     5.1670 </r>
       <r>     8.9021     0.3217     5.1898 </r>
       <r>     8.9799     0.3820     5.2171 </r>
       <r>     9.0576     0.4471     5.2493 </r>
       <r>     9.1353     0.5654     5.2880 </r>
       <r>     9.2131     0.8036     5.3399 </r>
       <r>     9.2908     1.1401     5.4152 </r>
       <r>     9.3685     1.4953     5.5175 </r>
       <r>     9.4463     1.6744     5.6455 </r>
       <r>     9.5240     1.5972     5.7702 </r>
       <r>     9.6017     1.0311     5.8838 </r>
       <r>     9.6795     0.6990     5.9439 </r>
       <r>     9.7572     0.6822     5.9975 </r>
       <r>     9.8349     0.6751     6.0502 </r>
       <r>     9.9127     0.6627     6.1023 </r>
       <r>     9.9904     0.6346     6.1528 </r>
       <r>    10.0681     0.5909     6.2005 </r>
       <r>    10.1459     0.5320     6.2442 </r>
       <r>    10.2236     0.4635     6.2830 </r>
       <r>    10.3013     0.4495     6.3182 </r>
       <r>    10.3791     0.4490     6.3531 </r>
       <r>    10.4568     0.4566     6.3882 </r>
       <r>    10.5345     0.4778     6.4263 </r>
       <r>    10.6122     0.4681     6.4613 </r>
       <r>    10.6900     0.4438     6.4969 </r>
       <r>    10.7677     0.4121     6.5302 </r>
       <r>    10.8454     0.3833     6.5610 </r>
       <r>    10.9232     0.3620     6.5900 </r>
       <r>    11.0009     0.3482     6.6175 </r>
       <r>    11.0786     0.3419     6.6443 </r>
       <r>    11.1564     0.3540     6.6709 </r>
       <r>    11.2341     0.5819     6.7083 </r>
       <r>    11.3118     0.6534     6.7573 </r>
       <r>    11.3896     0.7049     6.8118 </r>
       <r>    11.4673     0.6107     6.8614 </r>
       <r>    11.5450     0.6277     6.9113 </r>
       <r>    11.6228     0.5736     6.9564 </r>
       <r>    11.7005     0.5718     7.0008 </r>
       <r>    11.7782     0.5848     7.0457 </r>
       <r>    11.8560     0.6129     7.0921 </r>
       <r>    11.9337     0.6628     7.1416 </r>
       <r>    12.0114     0.7339     7.1956 </r>
       <r>    12.0892     0.8163     7.2562 </r>
       <r>    12.1669     0.8595     7.3215 </r>
       <r>    12.2446     0.8776     7.3892 </r>
       <r>    12.3224     0.5730     7.4527 </r>
       <r>    12.4001     0.5147     7.4945 </r>
       <r>    12.4778     0.4740     7.5329 </r>
       <r>    12.5556     0.4469     7.5686 </r>
       <r>    12.6333     0.4223     7.6024 </r>
       <r>    12.7110     0.3978     7.6343 </r>
       <r>    12.7888     0.3734     7.6642 </r>
       <r>    12.8665     0.3491     7.6923 </r>
       <r>    12.9442     0.3248     7.7185 </r>
       <r>    13.0220     0.3007     7.7428 </r>
       <r>    13.0997     0.2766     7.7652 </r>
       <r>    13.1774     0.2533     7.7858 </r>
       <r>    13.2552     0.2324     7.8047 </r>
       <r>    13.3329     0.2140     7.8220 </r>
       <r>    13.4106     0.2151     7.8387 </r>
       <r>    13.4884     0.2097     7.8553 </r>
       <r>    13.5661     0.1964     7.8711 </r>
       <r>    13.6438     0.1751     7.8856 </r>
       <r>    13.7216     0.1460     7.8981 </r>
       <r>    13.7993     0.1089     7.9081 </r>
       <r>    13.8770     0.0919     7.9156 </r>
       <r>    13.9548     0.0867     7.9225 </r>
       <r>    14.0325     0.0818     7.9291 </r>
       <r>    14.1102     0.0772     7.9352 </r>
       <r>    14.1880     0.0730     7.9411 </r>
       <r>    14.2657     0.0691     7.9466 </r>
       <r>    14.3434     0.0655     7.9518 </r>
       <r>    14.4212     0.0651     7.9569 </r>
       <r>    14.4989     0.0664     7.9620 </r>
       <r>    14.5766     0.0856     7.9675 </r>
       <r>    14.6544     0.1024     7.9751 </r>
       <r>    14.7321     0.0773     7.9823 </r>
       <r>    14.8098     0.0863     7.9881 </r>
       <r>    14.8876     0.0816     7.9949 </r>
       <r>    14.9653     0.0302     7.9996 </r>
       <r>    15.0430     0.0000     8.0000 </r>
       <r>    15.1208     0.0000     8.0000 </r>
       <r>    15.1985     0.0000     8.0000 </r>
       <r>    15.2762     0.0000     8.0000 </r>
       <r>    15.3540     0.0000     8.0000 </r>
       <r>    15.4317     0.0000     8.0000 </r>
       <r>    15.5094     0.0000     8.0000 </r>
       <r>    15.5872     0.0000     8.0000 </r>
       <r>    15.6649     0.0000     8.0000 </r>
       <r>    15.7426     0.0000     8.0000 </r>
       <r>    15.8204     0.0000     8.0000 </r>
       <r>    15.8981     0.0000     8.0000 </r>
       <r>    15.9758     0.0000     8.0000 </r>
       <r>    16.0536     0.0000     8.0000 </r>
      </set>
      <set comment="spin 2">
       <r>    -7.2663     0.0000     0.0000 </r>
       <r>    -7.1886     0.0000     0.0000 </r>
       <r>    -7.1109     0.0000     0.0000 </r>
       <r>    -7.0331     0.0000     0.0000 </r>
       <r>    -6.9554     0.0000     0.0000 </r>
       <r>    -6.8777     0.0000     0.0000 </r>
       <r>    -6.7999     0.0000     0.0000 </r>
       <r>    -6.7222     0.0000     0.0000 </r>
       <r>    -6.6445     0.0000     0.0000 </r>
       <r>    -6.5667     0.0000     0.0000 </r>
       <r>    -6.4890     0.0000     0.0000 </r>
       <r>    -6.4113     0.0000     0.0000 </r>
       <r>    -6.3335     0.0000     0.0000 </r>
       <r>    -6.2558     0.0000     0.0000 </r>
       <r>    -6.1781     0.0011     0.0000 </r>
       <r>    -6.1003     0.0155     0.0005 </r>
       <r>    -6.0226     0.0466     0.0029 </r>
       <r>    -5.9449     0.0944     0.0082 </r>
       <r>    -5.8671     0.0850     0.0152 </r>
       <r>    -5.7894     0.0956     0.0222 </r>
       <r>    -5.7117     0.1077     0.0301 </r>
       <r>    -5.6339     0.1205     0.0389 </r>
       <r>    -5.5562     0.1340     0.0488 </r>
       <r>    -5.4785     0.1478     0.0598 </r>
       <r>    -5.4007     0.1591     0.0717 </r>
       <r>    -5.3230     0.1666     0.0844 </r>
       <r>    -5.2453     0.1705     0.0975 </r>
       <r>    -5.1675     0.1772     0.1110 </r>
       <r>    -5.0898     0.1864     0.1251 </r>
       <r>    -5.0121     0.1958     0.1400 </r>
       <r>    -4.9343     0.2055     0.1556 </r>
       <r>    -4.8566     0.2154     0.1720 </r>
       <r>    -4.7789     0.2256     0.1891 </r>
       <r>    -4.7011     0.2361     0.2070 </r>
       <r>    -4.6234     0.2469     0.2258 </r>
       <r>    -4.5457     0.2559     0.2454 </r>
       <r>    -4.4679     0.2668     0.2657 </r>
       <r>    -4.3902     0.2794     0.2869 </r>
       <r>    -4.3125     0.2932     0.3091 </r>
       <r>    -4.2347     0.3082     0.3325 </r>
       <r>    -4.1570     0.3281     0.3572 </r>
       <r>    -4.0793     0.3688     0.3840 </r>
       <r>    -4.0015     0.4079     0.4143 </r>
       <r>    -3.9238     0.4316     0.4470 </r>
       <r>    -3.8461     0.4400     0.4810 </r>
       <r>    -3.7683     0.4327     0.5150 </r>
       <r>    -3.6906     0.4097     0.5479 </r>
       <r>    -3.6129     0.4298     0.5797 </r>
       <r>    -3.5351     0.4545     0.6144 </r>
       <r>    -3.4574     0.4314     0.6492 </r>
       <r>    -3.3797     0.3991     0.6812 </r>
       <r>    -3.3019     0.3773     0.7114 </r>
       <r>    -3.2242     0.3590     0.7400 </r>
       <r>    -3.1465     0.3442     0.7673 </r>
       <r>    -3.0687     0.3344     0.7936 </r>
       <r>    -2.9910     0.3289     0.8194 </r>
       <r>    -2.9133     0.3214     0.8447 </r>
       <r>    -2.8355     0.3301     0.8699 </r>
       <r>    -2.7578     0.3316     0.8957 </r>
       <r>    -2.6801     0.3186     0.9211 </r>
       <r>    -2.6023     0.2911     0.9449 </r>
       <r>    -2.5246     0.2492     0.9659 </r>
       <r>    -2.4469     0.1530     0.9856 </r>
       <r>    -2.3691     0.0746     0.9929 </r>
       <r>    -2.2914     0.0413     0.9974 </r>
       <r>    -2.2137     0.0156     0.9995 </r>
       <r>    -2.1359     0.0000     1.0000 </r>
       <r>    -2.0582     0.0000     1.0000 </r>
       <r>    -1.9805     0.0000     1.0000 </r>
       <r>    -1.9027     0.0000     1.0000 </r>
       <r>    -1.8250     0.0068     1.0001 </r>
       <r>    -1.7473     0.0238     1.0013 </r>
       <r>    -1.6695     0.0450     1.0039 </r>
       <r>    -1.5918     0.0704     1.0084 </r>
       <r>    -1.5141     0.1000     1.0150 </r>
       <r>    -1.4364     0.1338     1.0241 </r>
       <r>    -1.3586     0.3064     1.0411 </r>
       <r>    -1.2809     0.3294     1.0645 </r>
       <r>    -1.2032     0.3766     1.0920 </r>
       <r>    -1.1254     0.4106     1.1227 </r>
       <r>    -1.0477     0.5557     1.1575 </r>
       <r>    -0.9700     0.7464     1.2093 </r>
       <r>    -0.8922     0.7763     1.2696 </r>
       <r>    -0.8145     0.6975     1.3267 </r>
       <r>    -0.7368     0.5845     1.3770 </r>
       <r>    -0.6590     0.4399     1.4160 </r>
       <r>    -0.5813     0.3915     1.4483 </r>
       <r>    -0.5036     0.3520     1.4771 </r>
       <r>    -0.4258     0.3213     1.5032 </r>
       <r>    -0.3481     0.2994     1.5273 </r>
       <r>    -0.2704     0.2840     1.5499 </r>
       <r>    -0.1926     0.2709     1.5715 </r>
       <r>    -0.1149     0.2590     1.5921 </r>
       <r>    -0.0372     0.2477     1.6118 </r>
       <r>     0.0406     0.2369     1.6306 </r>
       <r>     0.1183     0.2265     1.6486 </r>
       <r>     0.1960     0.2163     1.6658 </r>
       <r>     0.2738     0.2067     1.6822 </r>
       <r>     0.3515     0.1976     1.6980 </r>
       <r>     0.4292     0.1891     1.7130 </r>
       <r>     0.5070     0.1777     1.7273 </r>
       <r>     0.5847     0.1617     1.7405 </r>
       <r>     0.6624     0.1488     1.7525 </r>
       <r>     0.7402     0.1391     1.7637 </r>
       <r>     0.8179     0.1326     1.7743 </r>
       <r>     0.8956     0.1290     1.7844 </r>
       <r>     0.9734     0.1260     1.7943 </r>
       <r>     1.0511     0.1231     1.8040 </r>
       <r>     1.1288     0.1203     1.8135 </r>
       <r>     1.2066     0.1176     1.8227 </r>
       <r>     1.2843     0.1149     1.8318 </r>
       <r>     1.3620     0.1122     1.8406 </r>
       <r>     1.4398     0.1095     1.8492 </r>
       <r>     1.5175     0.2716     1.8642 </r>
       <r>     1.5952     0.5448     1.8942 </r>
       <r>     1.6730     0.5476     1.9369 </r>
       <r>     1.7507     0.5988     1.9817 </r>
       <r>     1.8284     0.6204     2.0293 </r>
       <r>     1.9062     0.6124     2.0774 </r>
       <r>     1.9839     0.5748     2.1237 </r>
       <r>     2.0616     0.5545     2.1662 </r>
       <r>     2.1394     0.4968     2.2125 </r>
       <r>     2.2171     0.4926     2.2510 </r>
       <r>     2.2948     0.4874     2.2891 </r>
       <r>     2.3726     0.4810     2.3267 </r>
       <r>     2.4503     0.4736     2.3638 </r>
       <r>     2.5280     0.4651     2.4003 </r>
       <r>     2.6058     0.8406     2.4484 </r>
       <r>     2.6835     0.6465     2.5064 </r>
       <r>     2.7612     0.6403     2.5548 </r>
       <r>     2.8390     0.6843     2.6062 </r>
       <r>     2.9167     0.7408     2.6615 </r>
       <r>     2.9944     0.9134     2.7227 </r>
       <r>     3.0722     0.7519     2.7875 </r>
       <r>     3.1499     0.7454     2.8457 </r>
       <r>     3.2276     0.7381     2.9034 </r>
       <r>     3.3054     0.7310     2.9605 </r>
       <r>     3.3831     0.7212     3.0170 </r>
       <r>     3.4608     0.7279     3.0732 </r>
       <r>     3.5386     0.7270     3.1298 </r>
       <r>     3.6163     0.7227     3.1862 </r>
       <r>     3.6940     0.7173     3.2422 </r>
       <r>     3.7718     0.7097     3.2976 </r>
       <r>     3.8495     0.6987     3.3524 </r>
       <r>     3.9272     0.6851     3.4062 </r>
       <r>     4.0050     0.6712     3.4590 </r>
       <r>     4.0827     0.6544     3.5105 </r>
       <r>     4.1604     0.6538     3.5612 </r>
       <r>     4.2382     0.6587     3.6123 </r>
       <r>     4.3159     0.6358     3.6629 </r>
       <r>     4.3936     0.5926     3.7107 </r>
       <r>     4.4714     0.5353     3.7547 </r>
       <r>     4.5491     0.4639     3.7936 </r>
       <r>     4.6268     0.3949     3.8266 </r>
       <r>     4.7045     0.3450     3.8555 </r>
       <r>     4.7823     0.2844     3.8800 </r>
       <r>     4.8600     0.2366     3.9001 </r>
       <r>     4.9377     0.2115     3.9174 </r>
       <r>     5.0155     0.1905     3.9330 </r>
       <r>     5.0932     0.1721     3.9471 </r>
       <r>     5.1709     0.1561     3.9598 </r>
       <r>     5.2487     0.1427     3.9714 </r>
       <r>     5.3264     0.1319     3.9821 </r>
       <r>     5.4041     0.0718     3.9914 </r>
       <r>     5.4819     0.0442     3.9958 </r>
       <r>     5.5596     0.0232     3.9984 </r>
       <r>     5.6373     0.0090     3.9996 </r>
       <r>     5.7151     0.0014     4.0000 </r>
       <r>     5.7928     0.0000     4.0000 </r>
       <r>     5.8705     0.0000     4.0000 </r>
       <r>     5.9483     0.0000     4.0000 </r>
       <r>     6.0260     0.0000     4.0000 </r>
       <r>     6.1037     0.0000     4.0000 </r>
       <r>     6.1815     0.0000     4.0000 </r>
       <r>     6.2592     0.0131     4.0002 </r>
       <r>     6.3369     0.0368     4.0022 </r>
       <r>     6.4147     0.0535     4.0058 </r>
       <r>     6.4924     0.0631     4.0103 </r>
       <r>     6.5701     0.0790     4.0157 </r>
       <r>     6.6479     0.1035     4.0228 </r>
       <r>     6.7256     0.1234     4.0317 </r>
       <r>     6.8033     0.1406     4.0419 </r>
       <r>     6.8811     0.1545     4.0534 </r>
       <r>     6.9588     0.1769     4.0663 </r>
       <r>     7.0365     0.1992     4.0809 </r>
       <r>     7.1143     0.2212     4.0972 </r>
       <r>     7.1920     0.2440     4.1153 </r>
       <r>     7.2697     0.2705     4.1352 </r>
       <r>     7.3475     0.3145     4.1579 </r>
       <r>     7.4252     0.3677     4.1844 </r>
       <r>     7.5029     0.4301     4.2153 </r>
       <r>     7.5807     0.5017     4.2515 </r>
       <r>     7.6584     0.5977     4.2939 </r>
       <r>     7.7361     0.7364     4.3455 </r>
       <r>     7.8139     0.8846     4.4090 </r>
       <r>     7.8916     0.9476     4.4807 </r>
       <r>     7.9693     0.9757     4.5552 </r>
       <r>     8.0471     1.0063     4.6323 </r>
       <r>     8.1248     1.0241     4.7113 </r>
       <r>     8.2025     0.9733     4.7892 </r>
       <r>     8.2803     0.9437     4.8634 </r>
       <r>     8.3580     0.8960     4.9355 </r>
       <r>     8.4357     0.7517     5.0019 </r>
       <r>     8.5135     0.5905     5.0526 </r>
       <r>     8.5912     0.4684     5.0937 </r>
       <r>     8.6689     0.3479     5.1254 </r>
       <r>     8.7467     0.2311     5.1478 </r>
       <r>     8.8244     0.2666     5.1670 </r>
       <r>     8.9021     0.3217     5.1898 </r>
       <r>     8.9799     0.3820     5.2171 </r>
       <r>     9.0576     0.4471     5.2493 </r>
       <r>     9.1353     0.5654     5.2880 </r>
       <r>     9.2131     0.8036     5.3399 </r>
       <r>     9.2908     1.1401     5.4152 </r>
       <r>     9.3685     1.4953     5.5175 </r>
       <r>     9.4463     1.6744     5.6455 </r>
       <r>     9.5240     1.5972     5.7702 </r>
       <r>     9.6017     1.0312     5.8838 </r>
       <r>     9.6795     0.6990     5.9439 </r>
       <r>     9.7572     0.6822     5.9975 </r>
       <r>     9.8349     0.6751     6.0502 </r>
       <r>     9.9127     0.6627     6.1023 </r>
       <r>     9.9904     0.6346     6.1528 </r>
       <r>    10.0681     0.5909     6.2005 </r>
       <r>    10.1459     0.5320     6.2442 </r>
       <r>    10.2236     0.4635     6.2830 </r>
       <r>    10.3013     0.4495     6.3182 </r>
       <r>    10.3791     0.4490     6.3531 </r>
       <r>    10.4568     0.4566     6.3882 </r>
       <r>    10.5345     0.4778     6.4263 </r>
       <r>    10.6122     0.4680     6.4613 </r>
       <r>    10.6900     0.4438     6.4968 </r>
       <r>    10.7677     0.4120     6.5302 </r>
       <r>    10.8454     0.3832     6.5610 </r>
       <r>    10.9232     0.3619     6.5899 </r>
       <r>    11.0009     0.3481     6.6175 </r>
       <r>    11.0786     0.3418     6.6443 </r>
       <r>    11.1564     0.3538     6.6708 </r>
       <r>    11.2341     0.5818     6.7082 </r>
       <r>    11.3118     0.6533     6.7572 </r>
       <r>    11.3896     0.7048     6.8117 </r>
       <r>    11.4673     0.6106     6.8613 </r>
       <r>    11.5450     0.6276     6.9112 </r>
       <r>    11.6228     0.5735     6.9563 </r>
       <r>    11.7005     0.5717     7.0007 </r>
       <r>    11.7782     0.5847     7.0456 </r>
       <r>    11.8560     0.6129     7.0920 </r>
       <r>    11.9337     0.6629     7.1415 </r>
       <r>    12.0114     0.7341     7.1955 </r>
       <r>    12.0892     0.8166     7.2561 </r>
       <r>    12.1669     0.8598     7.3214 </r>
       <r>    12.2446     0.8780     7.3891 </r>
       <r>    12.3224     0.5756     7.4527 </r>
       <r>    12.4001     0.5150     7.4945 </r>
       <r>    12.4778     0.4743     7.5329 </r>
       <r>    12.5556     0.4473     7.5687 </r>
       <r>    12.6333     0.4227     7.6025 </r>
       <r>    12.7110     0.3982     7.6344 </r>
       <r>    12.7888     0.3738     7.6644 </r>
       <r>    12.8665     0.3495     7.6925 </r>
       <r>    12.9442     0.3253     7.7187 </r>
       <r>    13.0220     0.3011     7.7431 </r>
       <r>    13.0997     0.2771     7.7656 </r>
       <r>    13.1774     0.2536     7.7862 </r>
       <r>    13.2552     0.2326     7.8051 </r>
       <r>    13.3329     0.2141     7.8224 </r>
       <r>    13.4106     0.2152     7.8391 </r>
       <r>    13.4884     0.2098     7.8557 </r>
       <r>    13.5661     0.1964     7.8715 </r>
       <r>    13.6438     0.1751     7.8860 </r>
       <r>    13.7216     0.1460     7.8985 </r>
       <r>    13.7993     0.1089     7.9085 </r>
       <r>    13.8770     0.0919     7.9160 </r>
       <r>    13.9548     0.0867     7.9229 </r>
       <r>    14.0325     0.0818     7.9294 </r>
       <r>    14.1102     0.0772     7.9356 </r>
       <r>    14.1880     0.0729     7.9415 </r>
       <r>    14.2657     0.0690     7.9470 </r>
       <r>    14.3434     0.0655     7.9522 </r>
       <r>    14.4212     0.0652     7.9572 </r>
       <r>    14.4989     0.0668     7.9624 </r>
       <r>    14.5766     0.0893     7.9681 </r>
       <r>    14.6544     0.0998     7.9757 </r>
       <r>    14.7321     0.0764     7.9828 </r>
       <r>    14.8098     0.0898     7.9887 </r>
       <r>    14.8876     0.0813     7.9957 </r>
       <r>    14.9653     0.0173     7.9999 </r>
       <r>    15.0430     0.0000     8.0000 </r>
       <r>    15.1208     0.0000     8.0000 </r>
       <r>    15.1985     0.0000     8.0000 </r>
       <r>    15.2762     0.0000     8.0000 </r>
       <r>    15.3540     0.0000     8.0000 </r>
       <r>    15.4317     0.0000     8.0000 </r>
       <r>    15.5094     0.0000     8.0000 </r>
       <r>    15.5872     0.0000     8.0000 </r>
       <r>    15.6649     0.0000     8.0000 </r>
       <r>    15.7426     0.0000     8.0000 </r>
       <r>    15.8204     0.0000     8.0000 </r>
       <r>    15.8981     0.0000     8.0000 </r>
       <r>    15.9758     0.0000     8.0000 </r>
       <r>    16.0536     0.0000     8.0000 </r>
      </set>
     </set>
    </array>
   </total>
   <partial>
    <array>
     <dimension dim="1">gridpoints</dimension>
     <dimension dim="2">spin</dimension>
     <dimension dim="3">ion</dimension>
     <field>energy</field>
     <field>    s</field>
     <field>   py</field>
     <field>   pz</field>
     <field>   px</field>
     <field>  dxy</field>
     <field>  dyz</field>
     <field>  dz2</field>
     <field>  dxz</field>
     <field>x2-y2</field>
     <set>
      <set comment="ion 1">
       <set comment="spin 1">
        <r>    -7.2663     0.0000     0.0000     0.0000     0.0000     0.0000     0.0000     0.0000     0.0000     0.0000 </r>
        <r>    -7.1886     0.0000     0.0000     0.0000     0.0000     0.0000     0.0000     0.0000     0.0000     0.0000 </r>
        <r>    -7.1109     0.0000     0.0000     0.0000     0.0000     0.0000     0.0000     0.0000     0.0000     0.0000 </r>
        <r>    -7.0331     0.0000     0.0000     0.0000     0.0000     0.0000     0.0000     0.0000     0.0000     0.0000 </r>
        <r>    -6.9554     0.0000     0.0000     0.0000     0.0000     0.0000     0.0000     0.0000     0.0000     0.0000 </r>
        <r>    -6.8777     0.0000     0.0000     0.0000     0.0000     0.0000     0.0000     0.0000     0.0000     0.0000 </r>
        <r>    -6.7999     0.0000     0.0000     0.0000     0.0000     0.0000     0.0000     0.0000     0.0000     0.0000 </r>
        <r>    -6.7222     0.0000     0.0000     0.0000     0.0000     0.0000     0.0000     0.0000     0.0000     0.0000 </r>
        <r>    -6.6445     0.0000     0.0000     0.0000     0.0000     0.0000     0.0000     0.0000     0.0000     0.0000 </r>
        <r>    -6.5667     0.0000     0.0000     0.0000     0.0000     0.0000     0.0000     0.0000     0.0000     0.0000 </r>
        <r>    -6.4890     0.0000     0.0000     0.0000     0.0000     0.0000     0.0000     0.0000     0.0000     0.0000 </r>
        <r>    -6.4113     0.0000     0.0000     0.0000     0.0000     0.0000     0.0000     0.0000     0.0000     0.0000 </r>
        <r>    -6.3335     0.0000     0.0000     0.0000     0.0000     0.0000     0.0000     0.0000     0.0000     0.0000 </r>
        <r>    -6.2558     0.0000     0.0000     0.0000     0.0000     0.0000     0.0000     0.0000     0.0000     0.0000 </r>
        <r>    -6.1781     0.0002     0.0000     0.0000     0.0000     0.0000     0.0000     0.0000     0.0000     0.0000 </r>
        <r>    -6.1003     0.0033     0.0000     0.0000     0.0000     0.0000     0.0000     0.0000     0.0000     0.0000 </r>
        <r>    -6.0226     0.0099     0.0000     0.0000     0.0000     0.0000     0.0000     0.0000     0.0000     0.0000 </r>
        <r>    -5.9449     0.0200     0.0001     0.0001     0.0001     0.0000     0.0000     0.0000     0.0000     0.0000 </r>
        <r>    -5.8671     0.0179     0.0001     0.0001     0.0001     0.0000     0.0000     0.0000     0.0000     0.0000 </r>
        <r>    -5.7894     0.0201     0.0002     0.0002     0.0002     0.0000     0.0000     0.0000     0.0000     0.0000 </r>
        <r>    -5.7117     0.0226     0.0002     0.0002     0.0002     0.0000     0.0000     0.0000     0.0000     0.0000 </r>
        <r>    -5.6339     0.0253     0.0003     0.0003     0.0003     0.0000     0.0000     0.0000     0.0000     0.0000 </r>
        <r>    -5.5562     0.0281     0.0003     0.0003     0.0003     0.0000     0.0000     0.0000     0.0000     0.0000 </r>
        <r>    -5.4785     0.0310     0.0004     0.0004     0.0004     0.0000     0.0000     0.0000     0.0000     0.0000 </r>
        <r>    -5.4007     0.0333     0.0004     0.0004     0.0004     0.0000     0.0000     0.0000     0.0000     0.0000 </r>
        <r>    -5.3230     0.0349     0.0005     0.0005     0.0005     0.0000     0.0000     0.0000     0.0000     0.0000 </r>
        <r>    -5.2453     0.0356     0.0006     0.0006     0.0006     0.0000     0.0000     0.0000     0.0000     0.0000 </r>
        <r>    -5.1675     0.0370     0.0007     0.0007     0.0007     0.0000     0.0000     0.0000     0.0000     0.0000 </r>
        <r>    -5.0898     0.0389     0.0008     0.0008     0.0008     0.0000     0.0000     0.0000     0.0000     0.0000 </r>
        <r>    -5.0121     0.0409     0.0008     0.0008     0.0008     0.0000     0.0000     0.0000     0.0000     0.0000 </r>
        <r>    -4.9343     0.0429     0.0009     0.0009     0.0009     0.0000     0.0000     0.0000     0.0000     0.0000 </r>
        <r>    -4.8566     0.0450     0.0010     0.0010     0.0010     0.0000     0.0000     0.0000     0.0000     0.0000 </r>
        <r>    -4.7789     0.0471     0.0011     0.0011     0.0011     0.0000     0.0000     0.0000     0.0000     0.0000 </r>
        <r>    -4.7011     0.0493     0.0011     0.0011     0.0011     0.0000     0.0000     0.0000     0.0000     0.0000 </r>
        <r>    -4.6234     0.0515     0.0012     0.0012     0.0012     0.0000     0.0000     0.0000     0.0000     0.0000 </r>
        <r>    -4.5457     0.0534     0.0014     0.0014     0.0014     0.0000     0.0000     0.0000     0.0000     0.0000 </r>
        <r>    -4.4679     0.0558     0.0015     0.0015     0.0015     0.0000     0.0000     0.0000     0.0000     0.0000 </r>
        <r>    -4.3902     0.0585     0.0016     0.0016     0.0016     0.0000     0.0000     0.0000     0.0000     0.0000 </r>
        <r>    -4.3125     0.0615     0.0018     0.0018     0.0018     0.0000     0.0000     0.0000     0.0000     0.0000 </r>
        <r>    -4.2347     0.0647     0.0019     0.0019     0.0019     0.0000     0.0000     0.0000     0.0000     0.0000 </r>
        <r>    -4.1570     0.0691     0.0021     0.0021     0.0021     0.0000     0.0000     0.0000     0.0000     0.0000 </r>
        <r>    -4.0793     0.0780     0.0024     0.0024     0.0024     0.0000     0.0000     0.0000     0.0000     0.0000 </r>
        <r>    -4.0015     0.0865     0.0026     0.0026     0.0026     0.0000     0.0000     0.0000     0.0000     0.0000 </r>
        <r>    -3.9238     0.0917     0.0028     0.0028     0.0028     0.0000     0.0000     0.0000     0.0000     0.0000 </r>
        <r>    -3.8461     0.0935     0.0029     0.0029     0.0029     0.0000     0.0000     0.0000     0.0000     0.0000 </r>
        <r>    -3.7683     0.0919     0.0030     0.0030     0.0030     0.0000     0.0000     0.0000     0.0000     0.0000 </r>
        <r>    -3.6906     0.0868     0.0029     0.0029     0.0029     0.0000     0.0000     0.0000     0.0000     0.0000 </r>
        <r>    -3.6129     0.0911     0.0032     0.0032     0.0032     0.0000     0.0000     0.0000     0.0000     0.0000 </r>
[...]
       </set>
       <set comment="band 5">
        <r>  0.1027  0.0002  0.0967  0.0002  0.0000  0.0000  0.0000  0.0000  0.0000 </r>
        <r>  0.1027  0.0002  0.0967  0.0002  0.0000  0.0000  0.0000  0.0000  0.0000 </r>
       </set>
       <set comment="band 6">
        <r>  0.0000  0.0750  0.0000  0.0750  0.0000  0.0000  0.0000  0.0000  0.0000 </r>
        <r>  0.0000  0.0750  0.0000  0.0750  0.0000  0.0000  0.0000  0.0000  0.0000 </r>
       </set>
       <set comment="band 7">
        <r>  0.0286  0.0147  0.0965  0.0147  0.0000  0.0000  0.0000  0.0000  0.0000 </r>
        <r>  0.0286  0.0147  0.0965  0.0147  0.0000  0.0000  0.0000  0.0000  0.0000 </r>
       </set>
       <set comment="band 8">
        <r>  0.0826  0.0512  0.0004  0.0512  0.0000  0.0000  0.0000  0.0000  0.0000 </r>
        <r>  0.0826  0.0513  0.0004  0.0512  0.0000  0.0000  0.0000  0.0000  0.0000 </r>
       </set>
      </set>
      <set comment="kpoint 11">
       <set comment="band 1">
        <r>  0.2057  0.0000  0.0154  0.0000  0.0000  0.0000  0.0000  0.0000  0.0000 </r>
        <r>  0.2057  0.0000  0.0154  0.0000  0.0000  0.0000  0.0000  0.0000  0.0000 </r>
       </set>
       <set comment="band 2">
        <r>  0.1654  0.0000  0.0901  0.0000  0.0000  0.0000  0.0000  0.0000  0.0000 </r>
        <r>  0.1654  0.0000  0.0901  0.0000  0.0000  0.0000  0.0000  0.0000  0.0000 </r>
       </set>
       <set comment="band 3">
        <r>  0.0000  0.0913  0.0000  0.1062  0.0000  0.0000  0.0000  0.0000  0.0000 </r>
        <r>  0.0000  0.1059  0.0000  0.0916  0.0000  0.0000  0.0000  0.0000  0.0000 </r>
       </set>
       <set comment="band 4">
        <r>  0.0000  0.1062  0.0000  0.0913  0.0000  0.0000  0.0000  0.0000  0.0000 </r>
        <r>  0.0000  0.0916  0.0000  0.1059  0.0000  0.0000  0.0000  0.0000  0.0000 </r>
       </set>
       <set comment="band 5">
        <r>  0.0480  0.0000  0.0664  0.0000  0.0000  0.0000  0.0000  0.0000  0.0000 </r>
        <r>  0.0480  0.0000  0.0664  0.0000  0.0000  0.0000  0.0000  0.0000  0.0000 </r>
       </set>
       <set comment="band 6">
        <r>  0.0437  0.0000  0.0331  0.0000  0.0000  0.0000  0.0000  0.0000  0.0000 </r>
        <r>  0.0437  0.0000  0.0331  0.0000  0.0000  0.0000  0.0000  0.0000  0.0000 </r>
       </set>
       <set comment="band 7">
        <r>  0.0000  0.0602  0.0000  0.1069  0.0000  0.0000  0.0000  0.0000  0.0000 </r>
        <r>  0.0000  0.0917  0.0000  0.0753  0.0000  0.0000  0.0000  0.0000  0.0000 </r>
       </set>
       <set comment="band 8">
        <r>  0.0000  0.1069  0.0000  0.0602  0.0000  0.0000  0.0000  0.0000  0.0000 </r>
        <r>  0.0000  0.0753  0.0000  0.0917  0.0000  0.0000  0.0000  0.0000  0.0000 </r>
       </set>
      </set>
      <set comment="kpoint 12">
       <set comment="band 1">
        <r>  0.2039  0.0008  0.0224  0.0008  0.0000  0.0000  0.0000  0.0000  0.0000 </r>
        <r>  0.2039  0.0008  0.0224  0.0008  0.0000  0.0000  0.0000  0.0000  0.0000 </r>
       </set>
       <set comment="band 2">
        <r>  0.1737  0.0089  0.0559  0.0089  0.0000  0.0000  0.0000  0.0000  0.0000 </r>
        <r>  0.1737  0.0089  0.0559  0.0089  0.0000  0.0000  0.0000  0.0000  0.0000 </r>
       </set>
       <set comment="band 3">
        <r>  0.0112  0.0669  0.0330  0.0669  0.0000  0.0000  0.0000  0.0000  0.0000 </r>
        <r>  0.0112  0.0669  0.0330  0.0669  0.0000  0.0000  0.0000  0.0000  0.0000 </r>
       </set>
       <set comment="band 4">
        <r>  0.0000  0.0992  0.0000  0.0992  0.0000  0.0000  0.0000  0.0000  0.0000 </r>
        <r>  0.0000  0.0992  0.0000  0.0992  0.0000  0.0000  0.0000  0.0000  0.0000 </r>
       </set>
       <set comment="band 5">
        <r>  0.0471  0.0050  0.0460  0.0050  0.0000  0.0000  0.0000  0.0000  0.0000 </r>
        <r>  0.0471  0.0050  0.0460  0.0050  0.0000  0.0000  0.0000  0.0000  0.0000 </r>
       </set>
       <set comment="band 6">
        <r>  0.0366  0.0186  0.0223  0.0186  0.0000  0.0000  0.0000  0.0000  0.0000 </r>
        <r>  0.0366  0.0186  0.0223  0.0186  0.0000  0.0000  0.0000  0.0000  0.0000 </r>
       </set>
       <set comment="band 7">
        <r>  0.0421  0.0543  0.0323  0.0543  0.0000  0.0000  0.0000  0.0000  0.0000 </r>
        <r>  0.0421  0.0543  0.0323  0.0543  0.0000  0.0000  0.0000  0.0000  0.0000 </r>
       </set>
       <set comment="band 8">
        <r>  0.0000  0.0659  0.0000  0.0659  0.0000  0.0000  0.0000  0.0000  0.0000 </r>
        <r>  0.0000  0.0659  0.0000  0.0659  0.0000  0.0000  0.0000  0.0000  0.0000 </r>
       </set>
      </set>
      <set comment="kpoint 13">
       <set comment="band 1">
        <r>  0.2149  0.0040  0.0191  0.0040  0.0000  0.0000  0.0000  0.0000  0.0000 </r>
        <r>  0.2149  0.0040  0.0191  0.0040  0.0000  0.0000  0.0000  0.0000  0.0000 </r>
       </set>
       <set comment="band 2">
        <r>  0.1639  0.0148  0.0374  0.0148  0.0000  0.0000  0.0000  0.0000  0.0000 </r>
        <r>  0.1639  0.0148  0.0374  0.0148  0.0000  0.0000  0.0000  0.0000  0.0000 </r>
       </set>
       <set comment="band 3">
        <r>  0.0156  0.0458  0.0576  0.0458  0.0000  0.0000  0.0000  0.0000  0.0000 </r>
        <r>  0.0156  0.0458  0.0576  0.0458  0.0000  0.0000  0.0000  0.0000  0.0000 </r>
       </set>
       <set comment="band 4">
        <r>  0.0000  0.1008  0.0000  0.1008  0.0000  0.0000  0.0000  0.0000  0.0000 </r>
        <r>  0.0000  0.1008  0.0000  0.1008  0.0000  0.0000  0.0000  0.0000  0.0000 </r>
       </set>
       <set comment="band 5">
        <r>  0.0528  0.0015  0.0415  0.0015  0.0000  0.0000  0.0000  0.0000  0.0000 </r>
        <r>  0.0528  0.0015  0.0415  0.0015  0.0000  0.0000  0.0000  0.0000  0.0000 </r>
       </set>
       <set comment="band 6">
        <r>  0.0151  0.0386  0.0071  0.0386  0.0000  0.0000  0.0000  0.0000  0.0000 </r>
        <r>  0.0151  0.0386  0.0071  0.0386  0.0000  0.0000  0.0000  0.0000  0.0000 </r>
       </set>
       <set comment="band 7">
        <r>  0.0000  0.0592  0.0000  0.0592  0.0000  0.0000  0.0000  0.0000  0.0000 </r>
        <r>  0.0000  0.0591  0.0000  0.0592  0.0000  0.0000  0.0000  0.0000  0.0000 </r>
       </set>
       <set comment="band 8">
        <r>  0.0627  0.0319  0.0692  0.0319  0.0000  0.0000  0.0000  0.0000  0.0000 </r>
        <r>  0.0627  0.0319  0.0692  0.0319  0.0000  0.0000  0.0000  0.0000  0.0000 </r>
       </set>
      </set>
      <set comment="kpoint 14">
       <set comment="band 1">
        <r>  0.2108  0.0092  0.0047  0.0092  0.0000  0.0000  0.0000  0.0000  0.0000 </r>
        <r>  0.2108  0.0092  0.0047  0.0092  0.0000  0.0000  0.0000  0.0000  0.0000 </r>
       </set>
       <set comment="band 2">
        <r>  0.1646  0.0163  0.0410  0.0163  0.0000  0.0000  0.0000  0.0000  0.0000 </r>
        <r>  0.1646  0.0163  0.0410  0.0163  0.0000  0.0000  0.0000  0.0000  0.0000 </r>
       </set>
       <set comment="band 3">
        <r>  0.0109  0.0386  0.0723  0.0386  0.0000  0.0000  0.0000  0.0000  0.0000 </r>
        <r>  0.0109  0.0386  0.0723  0.0386  0.0000  0.0000  0.0000  0.0000  0.0000 </r>
       </set>
       <set comment="band 4">
        <r>  0.0000  0.1037  0.0000  0.1037  0.0000  0.0000  0.0000  0.0000  0.0000 </r>
        <r>  0.0000  0.1037  0.0000  0.1037  0.0000  0.0000  0.0000  0.0000  0.0000 </r>
       </set>
       <set comment="band 5">
        <r>  0.0583  0.0019  0.0494  0.0019  0.0000  0.0000  0.0000  0.0000  0.0000 </r>
        <r>  0.0583  0.0019  0.0494  0.0019  0.0000  0.0000  0.0000  0.0000  0.0000 </r>
       </set>
       <set comment="band 6">
        <r>  0.0000  0.0748  0.0000  0.0749  0.0000  0.0000  0.0000  0.0000  0.0000 </r>
        <r>  0.0000  0.0748  0.0000  0.0748  0.0000  0.0000  0.0000  0.0000  0.0000 </r>
       </set>
       <set comment="band 7">
        <r>  0.0251  0.0004  0.0926  0.0004  0.0000  0.0000  0.0000  0.0000  0.0000 </r>
        <r>  0.0251  0.0004  0.0926  0.0004  0.0000  0.0000  0.0000  0.0000  0.0000 </r>
       </set>
       <set comment="band 8">
        <r>  0.0729  0.0520  0.0333  0.0506  0.0000  0.0000  0.0000  0.0000  0.0000 </r>
        <r>  0.0732  0.0517  0.0330  0.0502  0.0000  0.0000  0.0000  0.0000  0.0000 </r>
       </set>
      </set>
      <set comment="kpoint 15">
       <set comment="band 1">
        <r>  0.1980  0.0000  0.0337  0.0000  0.0000  0.0000  0.0000  0.0000  0.0000 </r>
        <r>  0.1980  0.0000  0.0337  0.0000  0.0000  0.0000  0.0000  0.0000  0.0000 </r>
       </set>
       <set comment="band 2">
        <r>  0.1871  0.0000  0.0584  0.0000  0.0000  0.0000  0.0000  0.0000  0.0000 </r>
        <r>  0.1871  0.0000  0.0584  0.0000  0.0000  0.0000  0.0000  0.0000  0.0000 </r>
       </set>
       <set comment="band 3">
        <r>  0.0000  0.0900  0.0000  0.1069  0.0000  0.0000  0.0000  0.0000  0.0000 </r>
        <r>  0.0000  0.1145  0.0000  0.0824  0.0000  0.0000  0.0000  0.0000  0.0000 </r>
       </set>
       <set comment="band 4">
        <r>  0.0000  0.1069  0.0000  0.0900  0.0000  0.0000  0.0000  0.0000  0.0000 </r>
        <r>  0.0000  0.0824  0.0000  0.1145  0.0000  0.0000  0.0000  0.0000  0.0000 </r>
       </set>
       <set comment="band 5">
        <r>  0.0541  0.0000  0.0412  0.0000  0.0000  0.0000  0.0000  0.0000  0.0000 </r>
        <r>  0.0541  0.0000  0.0412  0.0000  0.0000  0.0000  0.0000  0.0000  0.0000 </r>
       </set>
       <set comment="band 6">
        <r>  0.0484  0.0000  0.0300  0.0000  0.0000  0.0000  0.0000  0.0000  0.0000 </r>
        <r>  0.0484  0.0000  0.0300  0.0000  0.0000  0.0000  0.0000  0.0000  0.0000 </r>
       </set>
       <set comment="band 7">
        <r>  0.0000  0.1066  0.0000  0.0647  0.0000  0.0000  0.0000  0.0000  0.0000 </r>
        <r>  0.0000  0.0287  0.0000  0.1427  0.0000  0.0000  0.0000  0.0000  0.0000 </r>
       </set>
       <set comment="band 8">
        <r>  0.0000  0.0646  0.0000  0.1065  0.0000  0.0000  0.0000  0.0000  0.0000 </r>
        <r>  0.0000  0.1426  0.0000  0.0285  0.0000  0.0000  0.0000  0.0000  0.0000 </r>
       </set>
      </set>
      <set comment="kpoint 16">
       <set comment="band 1">
        <r>  0.2029  0.0013  0.0378  0.0013  0.0000  0.0000  0.0000  0.0000  0.0000 </r>
        <r>  0.2029  0.0013  0.0378  0.0013  0.0000  0.0000  0.0000  0.0000  0.0000 </r>
       </set>
       <set comment="band 2">
        <r>  0.1900  0.0019  0.0449  0.0019  0.0000  0.0000  0.0000  0.0000  0.0000 </r>
        <r>  0.1900  0.0019  0.0449  0.0019  0.0000  0.0000  0.0000  0.0000  0.0000 </r>
       </set>
       <set comment="band 3">
        <r>  0.0025  0.0730  0.0198  0.0730  0.0000  0.0000  0.0000  0.0000  0.0000 </r>
        <r>  0.0025  0.0730  0.0198  0.0730  0.0000  0.0000  0.0000  0.0000  0.0000 </r>
       </set>
       <set comment="band 4">
        <r>  0.0000  0.0989  0.0000  0.0989  0.0000  0.0000  0.0000  0.0000  0.0000 </r>
        <r>  0.0000  0.0989  0.0000  0.0989  0.0000  0.0000  0.0000  0.0000  0.0000 </r>
       </set>
       <set comment="band 5">
        <r>  0.0525  0.0003  0.0351  0.0003  0.0000  0.0000  0.0000  0.0000  0.0000 </r>
        <r>  0.0525  0.0003  0.0351  0.0003  0.0000  0.0000  0.0000  0.0000  0.0000 </r>
       </set>
       <set comment="band 6">
        <r>  0.0378  0.0238  0.0218  0.0238  0.0000  0.0000  0.0000  0.0000  0.0000 </r>
        <r>  0.0378  0.0238  0.0218  0.0238  0.0000  0.0000  0.0000  0.0000  0.0000 </r>
       </set>
       <set comment="band 7">
        <r>  0.0000  0.0888  0.0001  0.0879  0.0000  0.0000  0.0000  0.0000  0.0000 </r>
        <r>  0.0000  0.0879  0.0000  0.0908  0.0000  0.0000  0.0000  0.0000  0.0000 </r>
       </set>
       <set comment="band 8">
        <r>  0.0338  0.0898  0.0188  0.0886  0.0000  0.0000  0.0000  0.0000  0.0000 </r>
        <r>  0.0221  0.0846  0.0396  0.0826  0.0000  0.0000  0.0000  0.0000  0.0000 </r>
       </set>
      </set>
      <set comment="kpoint 17">
       <set comment="band 1">
        <r>  0.2068  0.0026  0.0140  0.0008  0.0000  0.0000  0.0000  0.0000  0.0000 </r>
        <r>  0.2068  0.0026  0.0140  0.0008  0.0000  0.0000  0.0000  0.0000  0.0000 </r>
       </set>
       <set comment="band 2">
        <r>  0.1556  0.0142  0.0467  0.0277  0.0000  0.0000  0.0000  0.0000  0.0000 </r>
        <r>  0.1556  0.0142  0.0467  0.0277  0.0000  0.0000  0.0000  0.0000  0.0000 </r>
       </set>
       <set comment="band 3">
        <r>  0.0124  0.0505  0.0206  0.0917  0.0000  0.0000  0.0000  0.0000  0.0000 </r>
        <r>  0.0124  0.0505  0.0206  0.0917  0.0000  0.0000  0.0000  0.0000  0.0000 </r>
       </set>
       <set comment="band 4">
        <r>  0.0069  0.1016  0.0598  0.0305  0.0000  0.0000  0.0000  0.0000  0.0000 </r>
        <r>  0.0069  0.1016  0.0598  0.0305  0.0000  0.0000  0.0000  0.0000  0.0000 </r>
       </set>
       <set comment="band 5">
        <r>  0.0292  0.0265  0.0490  0.0293  0.0000  0.0000  0.0000  0.0000  0.0000 </r>
        <r>  0.0292  0.0265  0.0490  0.0293  0.0000  0.0000  0.0000  0.0000  0.0000 </r>
       </set>
       <set comment="band 6">
        <r>  0.0434  0.0196  0.0217  0.0107  0.0000  0.0000  0.0000  0.0000  0.0000 </r>
        <r>  0.0434  0.0196  0.0217  0.0107  0.0000  0.0000  0.0000  0.0000  0.0000 </r>
       </set>
       <set comment="band 7">
        <r>  0.0472  0.0440  0.0106  0.0521  0.0000  0.0000  0.0000  0.0000  0.0000 </r>
        <r>  0.0472  0.0440  0.0106  0.0521  0.0000  0.0000  0.0000  0.0000  0.0000 </r>
       </set>
       <set comment="band 8">
        <r>  0.0065  0.0558  0.0126  0.0826  0.0000  0.0000  0.0000  0.0000  0.0000 </r>
        <r>  0.0065  0.0558  0.0126  0.0826  0.0000  0.0000  0.0000  0.0000  0.0000 </r>
       </set>
      </set>
      <set comment="kpoint 18">
       <set comment="band 1">
        <r>  0.2123  0.0034  0.0160  0.0047  0.0000  0.0000  0.0000  0.0000  0.0000 </r>
        <r>  0.2123  0.0034  0.0160  0.0047  0.0000  0.0000  0.0000  0.0000  0.0000 </r>
       </set>
       <set comment="band 2">
        <r>  0.1518  0.0156  0.0279  0.0323  0.0000  0.0000  0.0000  0.0000  0.0000 </r>
        <r>  0.1518  0.0156  0.0279  0.0323  0.0000  0.0000  0.0000  0.0000  0.0000 </r>
       </set>
       <set comment="band 3">
        <r>  0.0292  0.0384  0.0419  0.0685  0.0000  0.0000  0.0000  0.0000  0.0000 </r>
        <r>  0.0292  0.0384  0.0419  0.0685  0.0000  0.0000  0.0000  0.0000  0.0000 </r>
       </set>
       <set comment="band 4">
        <r>  0.0023  0.0966  0.0541  0.0346  0.0000  0.0000  0.0000  0.0000  0.0000 </r>
        <r>  0.0023  0.0966  0.0541  0.0346  0.0000  0.0000  0.0000  0.0000  0.0000 </r>
       </set>
       <set comment="band 5">
        <r>  0.0330  0.0338  0.0326  0.0176  0.0000  0.0000  0.0000  0.0000  0.0000 </r>
        <r>  0.0330  0.0338  0.0326  0.0176  0.0000  0.0000  0.0000  0.0000  0.0000 </r>
       </set>
       <set comment="band 6">
        <r>  0.0440  0.0390  0.0128  0.0349  0.0000  0.0000  0.0000  0.0000  0.0000 </r>
        <r>  0.0440  0.0390  0.0128  0.0349  0.0000  0.0000  0.0000  0.0000  0.0000 </r>
       </set>
       <set comment="band 7">
        <r>  0.0324  0.0372  0.0212  0.0353  0.0000  0.0000  0.0000  0.0000  0.0000 </r>
        <r>  0.0324  0.0372  0.0212  0.0353  0.0000  0.0000  0.0000  0.0000  0.0000 </r>
       </set>
       <set comment="band 8">
        <r>  0.0177  0.0365  0.0313  0.0538  0.0000  0.0000  0.0000  0.0000  0.0000 </r>
        <r>  0.0173  0.0369  0.0321  0.0540  0.0000  0.0000  0.0000  0.0000  0.0000 </r>
       </set>
      </set>
      <set comment="kpoint 19">
       <set comment="band 1">
        <r>  0.2031  0.0008  0.0293  0.0032  0.0000  0.0000  0.0000  0.0000  0.0000 </r>
        <r>  0.2031  0.0008  0.0293  0.0032  0.0000  0.0000  0.0000  0.0000  0.0000 </r>
       </set>
       <set comment="band 2">
        <r>  0.1926  0.0007  0.0435  0.0118  0.0000  0.0000  0.0000  0.0000  0.0000 </r>
        <r>  0.1926  0.0007  0.0435  0.0118  0.0000  0.0000  0.0000  0.0000  0.0000 </r>
       </set>
       <set comment="band 3">
        <r>  0.0069  0.0665  0.0179  0.0789  0.0000  0.0000  0.0000  0.0000  0.0000 </r>
        <r>  0.0069  0.0665  0.0179  0.0789  0.0000  0.0000  0.0000  0.0000  0.0000 </r>
       </set>
       <set comment="band 4">
        <r>  0.0000  0.0847  0.0269  0.0615  0.0000  0.0000  0.0000  0.0000  0.0000 </r>
        <r>  0.0000  0.0847  0.0269  0.0615  0.0000  0.0000  0.0000  0.0000  0.0000 </r>
       </set>
       <set comment="band 5">
        <r>  0.0366  0.0306  0.0284  0.0214  0.0000  0.0000  0.0000  0.0000  0.0000 </r>
        <r>  0.0366  0.0306  0.0284  0.0214  0.0000  0.0000  0.0000  0.0000  0.0000 </r>
       </set>
       <set comment="band 6">
        <r>  0.0362  0.0304  0.0186  0.0136  0.0000  0.0000  0.0000  0.0000  0.0000 </r>
        <r>  0.0362  0.0304  0.0186  0.0136  0.0000  0.0000  0.0000  0.0000  0.0000 </r>
       </set>
       <set comment="band 7">
        <r>  0.0324  0.0533  0.0257  0.0349  0.0000  0.0000  0.0000  0.0000  0.0000 </r>
        <r>  0.0324  0.0533  0.0257  0.0349  0.0000  0.0000  0.0000  0.0000  0.0000 </r>
       </set>
       <set comment="band 8">
        <r>  0.0167  0.0779  0.0233  0.0616  0.0000  0.0000  0.0000  0.0000  0.0000 </r>
        <r>  0.0167  0.0779  0.0232  0.0616  0.0000  0.0000  0.0000  0.0000  0.0000 </r>
       </set>
      </set>
      <set comment="kpoint 20">
       <set comment="band 1">
        <r>  0.2122  0.0016  0.0172  0.0147  0.0000  0.0000  0.0000  0.0000  0.0000 </r>
        <r>  0.2122  0.0016  0.0172  0.0147  0.0000  0.0000  0.0000  0.0000  0.0000 </r>
       </set>
       <set comment="band 2">
        <r>  0.1907  0.0023  0.0356  0.0152  0.0000  0.0000  0.0000  0.0000  0.0000 </r>
        <r>  0.1907  0.0023  0.0356  0.0152  0.0000  0.0000  0.0000  0.0000  0.0000 </r>
       </set>
       <set comment="band 3">
        <r>  0.0008  0.0587  0.0511  0.0439  0.0000  0.0000  0.0000  0.0000  0.0000 </r>
        <r>  0.0008  0.0587  0.0511  0.0439  0.0000  0.0000  0.0000  0.0000  0.0000 </r>
       </set>
       <set comment="band 4">
        <r>  0.0030  0.0799  0.0216  0.0701  0.0000  0.0000  0.0000  0.0000  0.0000 </r>
        <r>  0.0030  0.0799  0.0216  0.0701  0.0000  0.0000  0.0000  0.0000  0.0000 </r>
       </set>
       <set comment="band 5">
        <r>  0.0350  0.0396  0.0242  0.0121  0.0000  0.0000  0.0000  0.0000  0.0000 </r>
        <r>  0.0350  0.0396  0.0242  0.0121  0.0000  0.0000  0.0000  0.0000  0.0000 </r>
       </set>
       <set comment="band 6">
        <r>  0.0029  0.0816  0.0003  0.0050  0.0000  0.0000  0.0000  0.0000  0.0000 </r>
        <r>  0.0029  0.0816  0.0003  0.0050  0.0000  0.0000  0.0000  0.0000  0.0000 </r>
       </set>
       <set comment="band 7">
        <r>  0.0464  0.0063  0.0514  0.0632  0.0000  0.0000  0.0000  0.0000  0.0000 </r>
        <r>  0.0464  0.0063  0.0514  0.0632  0.0000  0.0000  0.0000  0.0000  0.0000 </r>
       </set>
       <set comment="band 8">
        <r>  0.0389  0.0404  0.0309  0.0229  0.0000  0.0000  0.0000  0.0000  0.0000 </r>
        <r>  0.0389  0.0404  0.0309  0.0229  0.0000  0.0000  0.0000  0.0000  0.0000 </r>
       </set>
      </set>
     </set>
    </set>
   </array>
  </projected>
 </calculation>
 <structure name="finalpos" >
  <crystal>
   <varray name="basis" >
    <v>      -0.00000000       2.71803466       2.71803466 </v>
    <v>       2.71803466      -0.00000000       2.71803466 </v>
    <v>       2.71803466       2.71803466      -0.00000000 </v>
   </varray>
   <i name="volume">     40.16011677 </i>
   <varray name="rec_basis" >
    <v>      -0.18395645       0.18395645       0.18395645 </v>
    <v>       0.18395645      -0.18395645       0.18395645 </v>
    <v>       0.18395645       0.18395645      -0.18395645 </v>
   </varray>
  </crystal>
  <varray name="positions" >
   <v>       0.00000000       0.00000000       0.00000000 </v>
   <v>       0.25000000       0.25000000       0.25000000 </v>
  </varray>
 </structure>
</modeling>
