 vasp.6.3.0 20Jan22 (build Feb 02 2022 18:12:33) complex

 executed on             LinuxIFC date 2022.04.15  08:43:45
 running on  144 total cores
 distrk:  each k-point on  144 cores,    1 groups
 distr:  one band on NCORE=   1 cores,  144 groups


--------------------------------------------------------------------------------------------------------


 INCAR:
   ALGO = Fast
   EDIFF = 1e-05
   ENAUG = 1360.0
   ENCUT = 500
   GGA = Ps
   ISMEAR = 0
   ISPIN = 2
   LAECHG = False
   LASPH = True
   LCHARG = True
   LELF = False
   LMIXTAU = True
   LORBIT = 11
   LREAL = False
   LVTOT = True
   LWAVE = True
   MAGMOM = 1*0.001 1*0.0 1*0.001 1*0.0 1*0.001 1*0.0 1*0.001
   NELECT = 28.0
   NELM = 200
   NELMIN = 6
   NSW = 0
   PREC = Accurate
   SIGMA = 0.05

 POTCAR:    PAW_PBE Si 05Jan2001
 WARNING: For LVTOT=.TRUE., VASP.5.x writes the TOTAL local potential to the
     file LOCPOT. If you want only the Hartree contributions, use LVHAR=.TRUE.
     instead.

 -----------------------------------------------------------------------------
|                                                                             |
|           W    W    AA    RRRRR   N    N  II  N    N   GGGG   !!!           |
|           W    W   A  A   R    R  NN   N  II  NN   N  G    G  !!!           |
|           W    W  A    A  R    R  N N  N  II  N N  N  G       !!!           |
|           W WW W  AAAAAA  RRRRR   N  N N  II  N  N N  G  GGG   !            |
|           WW  WW  A    A  R   R   N   NN  II  N   NN  G    G                |
|           W    W  A    A  R    R  N    N  II  N    N   GGGG   !!!           |
|                                                                             |
|     For optimal performance we recommend to set                             |
|       NCORE = 2 up to number-of-cores-per-socket                            |
|     NCORE specifies how many cores store one orbital (NPAR=cpu/NCORE).      |
|     This setting can greatly improve the performance of VASP for DFT.       |
|     The default, NCORE=1 might be grossly inefficient on modern             |
|     multi-core architectures or massively parallel machines. Do your        |
|     own testing! More info at https://www.vasp.at/wiki/index.php/NCORE      |
|     Unfortunately you need to use the default for GW and RPA                |
|     calculations (for HF NCORE is supported but not extensively tested      |
|     yet).                                                                   |
|                                                                             |
 -----------------------------------------------------------------------------

 POTCAR:    PAW_PBE Si 05Jan2001
   VRHFIN =Si: s2p2
   LEXCH  = PE
   EATOM  =   103.0669 eV,    7.5752 Ry

   TITEL  = PAW_PBE Si 05Jan2001
   LULTRA =        F    use ultrasoft PP ?
   IUNSCR =        1    unscreen: 0-lin 1-nonlin 2-no
   RPACOR =    1.500    partial core radius
   POMASS =   28.085; ZVAL   =    4.000    mass and valenz
   RCORE  =    1.900    outmost cutoff radius
   RWIGS  =    2.480; RWIGS  =    1.312    wigner-seitz radius (au A)
   ENMAX  =  245.345; ENMIN  =  184.009 eV
   ICORE  =        2    local potential
   LCOR   =        T    correct aug charges
   LPAW   =        T    paw PP
   EAUG   =  322.069
   DEXC   =    0.000
   RMAX   =    1.950    core radius for proj-oper
   RAUG   =    1.300    factor for augmentation sphere
   RDEP   =    1.993    radius for radial grids
   RDEPT  =    1.837    core radius for aug-charge

   Atomic configuration
    6 entries
     n  l   j            E        occ.
     1  0  0.50     -1785.8828   2.0000
     2  0  0.50      -139.4969   2.0000
     2  1  1.50       -95.5546   6.0000
     3  0  0.50       -10.8127   2.0000
     3  1  0.50        -4.0811   2.0000
     3  2  1.50        -4.0817   0.0000
   Description
     l       E           TYP  RCUT    TYP  RCUT
     0    -10.8127223     23  1.900
     0     -7.6451159     23  1.900
     1     -4.0811372     23  1.900
     1      2.4879257     23  1.900
     2     -4.0817478      7  1.900
  local pseudopotential read in
  partial core-charges read in
  partial kinetic energy density read in
  atomic valenz-charges read in
  non local Contribution for L=           0  read in
    real space projection operators read in
  non local Contribution for L=           0  read in
    real space projection operators read in
  non local Contribution for L=           1  read in
    real space projection operators read in
  non local Contribution for L=           1  read in
    real space projection operators read in
    PAW grid and wavefunctions read in

   number of l-projection  operators is LMAX  =           4
   number of lm-projection operators is LMMAX =           8

 -----------------------------------------------------------------------------
|                                                                             |
|               ----> ADVICE to this user running VASP <----                  |
|                                                                             |
|     You enforced a specific xc type in the INCAR file but a different       |
|     type was found in the POTCAR file.                                      |
|     I HOPE YOU KNOW WHAT YOU ARE DOING!                                     |
|                                                                             |
 -----------------------------------------------------------------------------

  PAW_PBE Si 05Jan2001                  :
 energy of atom  1       EATOM= -103.0669
 kinetic energy error for atom=    0.0006 (will be added to EATOM!!)


 POSCAR: Si7
  positions in direct lattice
  No initial velocities read in
 exchange correlation table for  LEXCH =       14
   RHO(1)=    0.500       N(1)  =     2000
   RHO(2)= 2000.500       N(2)  =     4000



--------------------------------------------------------------------------------------------------------


 ion  position               nearest neighbor table
   1  0.253  0.747  0.253-   2 2.37   4 2.37   6 2.37
   2  0.000  0.000  0.500-   1 2.37   3 2.37   5 2.37   7 2.37
   3  0.253  0.253  0.747-   2 2.37   4 2.37   6 2.37
   4  0.000  0.500  0.000-   1 2.37   3 2.37   5 2.37   7 2.37
   5  0.747  0.747  0.747-   2 2.37   4 2.37   6 2.37
   6  0.500  0.000  0.000-   1 2.37   3 2.37   5 2.37   7 2.37
   7  0.747  0.253  0.253-   2 2.37   4 2.37   6 2.37

  LATTYP: Found a simple cubic cell.
 ALAT       =     5.4378483500

  Lattice vectors:

 A1 = (   5.4378483500,   0.0000000000,   0.0000000000)
 A2 = (   0.0000000000,   5.4378483500,   0.0000000000)
 A3 = (   0.0000000000,   0.0000000000,   5.4378483500)


Analysis of symmetry for initial positions (statically):
=====================================================================
 Subroutine PRICEL returns:
 Original cell was already a primitive cell.


 Routine SETGRP: Setting up the symmetry group for a
 simple cubic supercell.


 Subroutine GETGRP returns: Found 24 space group operations
 (whereof 24 operations were pure point group operations)
 out of a pool of 48 trial point group operations.


The static configuration has the point symmetry T_d .


Analysis of symmetry for dynamics (positions and initial velocities):
=====================================================================
 Subroutine PRICEL returns:
 Original cell was already a primitive cell.


 Routine SETGRP: Setting up the symmetry group for a
 simple cubic supercell.


 Subroutine GETGRP returns: Found 24 space group operations
 (whereof 24 operations were pure point group operations)
 out of a pool of 48 trial point group operations.


The dynamic configuration has the point symmetry T_d .


Analysis of structural, dynamic, and magnetic symmetry:
=====================================================================
 Subroutine PRICEL returns:
 Original cell was already a primitive cell.


 Routine SETGRP: Setting up the symmetry group for a
 simple cubic supercell.


 Subroutine GETGRP returns: Found 24 space group operations
 (whereof 24 operations were pure point group operations)
 out of a pool of 48 trial point group operations.


The overall configuration has the point symmetry T_d .


 Subroutine INISYM returns: Found 24 space group operations
 (whereof 24 operations are pure point group operations),
 and found     1 'primitive' translations


----------------------------------------------------------------------------------------

                                     Primitive cell

  volume of cell :     160.7982

  direct lattice vectors                    reciprocal lattice vectors
     5.437848350  0.000000000  0.000000000     0.183896265  0.000000000  0.000000000
     0.000000000  5.437848350  0.000000000     0.000000000  0.183896265  0.000000000
     0.000000000  0.000000000  5.437848350     0.000000000  0.000000000  0.183896265

  length of vectors
     5.437848350  5.437848350  5.437848350     0.183896265  0.183896265  0.183896265

  position of ions in fractional coordinates (direct lattice)
     0.253309954  0.746690046  0.253309954
     0.000000000  0.000000000  0.500000000
     0.253309954  0.253309954  0.746690046
     0.000000000  0.500000000  0.000000000
     0.746690046  0.746690046  0.746690046
     0.500000000  0.000000000  0.000000000
     0.746690046  0.253309954  0.253309954

  ion indices of the primitive-cell ions
   primitive index   ion index
                 1           1
                 2           2
                 3           3
                 4           4
                 5           5
                 6           6
                 7           7

----------------------------------------------------------------------------------------



 KPOINTS: pymatgen with grid density = 691 / numbe

Automatic generation of k-mesh.
 Grid dimensions read from file:
 generate k-points for:    4    4    4

 Generating k-lattice:

  Cartesian coordinates                     Fractional coordinates (reciprocal lattice)
     0.045974066  0.000000000  0.000000000     0.250000000  0.000000000  0.000000000
     0.000000000  0.045974066  0.000000000     0.000000000  0.250000000  0.000000000
     0.000000000  0.000000000  0.045974066     0.000000000  0.000000000  0.250000000

  Length of vectors
     0.045974066  0.045974066  0.045974066

  Shift w.r.t. Gamma in fractional coordinates (k-lattice)
     0.000000000  0.000000000  0.000000000


 Subroutine IBZKPT returns following result:
 ===========================================

 Found     10 irreducible k-points:

 Following reciprocal coordinates:
            Coordinates               Weight
  0.000000  0.000000  0.000000      1.000000
  0.250000  0.000000  0.000000      6.000000
  0.500000  0.000000  0.000000      3.000000
  0.250000  0.250000  0.000000     12.000000
  0.500000  0.250000  0.000000     12.000000
  0.500000  0.500000  0.000000      3.000000
  0.250000  0.250000  0.250000      8.000000
  0.500000  0.250000  0.250000     12.000000
  0.500000  0.500000  0.250000      6.000000
  0.500000  0.500000  0.500000      1.000000

 Following cartesian coordinates:
            Coordinates               Weight
  0.000000  0.000000  0.000000      1.000000
  0.045974  0.000000  0.000000      6.000000
  0.091948  0.000000  0.000000      3.000000
  0.045974  0.045974  0.000000     12.000000
  0.091948  0.045974  0.000000     12.000000
  0.091948  0.091948  0.000000      3.000000
  0.045974  0.045974  0.045974      8.000000
  0.091948  0.045974  0.045974     12.000000
  0.091948  0.091948  0.045974      6.000000
  0.091948  0.091948  0.091948      1.000000



--------------------------------------------------------------------------------------------------------




 Dimension of arrays:
   k-points           NKPTS =     10   k-points in BZ     NKDIM =     10   number of bands    NBANDS=    144
   number of dos      NEDOS =    301   number of ions     NIONS =      7
   non local maximal  LDIM  =      4   non local SUM 2l+1 LMDIM =      8
   total plane-waves  NPLWV =  64000
   max r-space proj   IRMAX =      1   max aug-charges    IRDMAX=  13506
   dimension x,y,z NGX =    40 NGY =   40 NGZ =   40
   dimension x,y,z NGXF=    80 NGYF=   80 NGZF=   80
   support grid    NGXF=    80 NGYF=   80 NGZF=   80
   ions per type =               7
   NGX,Y,Z   is equivalent  to a cutoff of  12.23, 12.23, 12.23 a.u.
   NGXF,Y,Z  is equivalent  to a cutoff of  24.46, 24.46, 24.46 a.u.

 SYSTEM =  unknown system
 POSCAR =  Si7

 Startparameter for this run:
   NWRITE =      2    write-flag & timer
   PREC   = accura    normal or accurate (medium, high low for compatibility)
   ISTART =      0    job   : 0-new  1-cont  2-samecut
   ICHARG =      2    charge: 1-file 2-atom 10-const
   ISPIN  =      2    spin polarized calculation?
   LNONCOLLINEAR =      F non collinear calculations
   LSORBIT =      F    spin-orbit coupling
   INIWAV =      1    electr: 0-lowe 1-rand  2-diag
   LASPH  =      T    aspherical Exc in radial PAW
 Electronic Relaxation 1
   ENCUT  =  500.0 eV  36.75 Ry    6.06 a.u.   9.91  9.91  9.91*2*pi/ulx,y,z
   ENINI  =  500.0     initial cutoff
   ENAUG  = 1360.0 eV  augmentation charge cutoff
   NELM   =    200;   NELMIN=  6; NELMDL= -5     # of ELM steps
   EDIFF  = 0.1E-04   stopping-criterion for ELM
   LREAL  =      F    real-space projection
   NLSPLINE    = F    spline interpolate recip. space projectors
   LCOMPAT=      F    compatible to vasp.4.4
   GGA_COMPAT  = T    GGA compatible to vasp.4.4-vasp.4.6
   LMAXPAW     = -100 max onsite density
   LMAXMIX     =    2 max onsite mixed and CHGCAR
   VOSKOWN=      0    Vosko Wilk Nusair interpolation
   ROPT   =    0.00000
 Ionic relaxation
   EDIFFG = 0.1E-03   stopping-criterion for IOM
   NSW    =      0    number of steps for IOM
   NBLOCK =      1;   KBLOCK =      1    inner block; outer block
   IBRION =     -1    ionic relax: 0-MD 1-quasi-New 2-CG
   NFREE  =      0    steps in history (QN), initial steepest desc. (CG)
   ISIF   =      2    stress and relaxation
   IWAVPR =     10    prediction:  0-non 1-charg 2-wave 3-comb
   ISYM   =      2    0-nonsym 1-usesym 2-fastsym
   LCORR  =      T    Harris-Foulkes like correction to forces

   POTIM  = 0.5000    time-step for ionic-motion
   TEIN   =    0.0    initial temperature
   TEBEG  =    0.0;   TEEND  =   0.0 temperature during run
   SMASS  =  -3.00    Nose mass-parameter (am)
   estimated Nose-frequenzy (Omega)   =  0.10E-29 period in steps = 0.13E+47 mass=  -0.676E-27a.u.
   SCALEE = 1.0000    scale energy and forces
   NPACO  =    256;   APACO  = 10.0  distance and # of slots for P.C.
   PSTRESS=    0.0 pullay stress

  Mass of Ions in am
   POMASS =  28.09
  Ionic Valenz
   ZVAL   =   4.00
  Atomic Wigner-Seitz radii
   RWIGS  =  -1.00
  virtual crystal weights
   VCA    =   1.00
   NELECT =      28.0000    total number of electrons
   NUPDOWN=      -1.0000    fix difference up-down

 DOS related values:
   EMIN   =  10.00;   EMAX   =-10.00  energy-range for DOS
   EFERMI =   0.00
   ISMEAR =     0;   SIGMA  =   0.05  broadening in eV -4-tet -1-fermi 0-gaus

 Electronic relaxation 2 (details)
   IALGO  =     68    algorithm
   LDIAG  =      T    sub-space diagonalisation (order eigenvalues)
   LSUBROT=      F    optimize rotation matrix (better conditioning)
   TURBO    =      0    0=normal 1=particle mesh
   IRESTART =      0    0=no restart 2=restart with 2 vectors
   NREBOOT  =      0    no. of reboots
   NMIN     =      0    reboot dimension
   EREF     =   0.00    reference energy to select bands
   IMIX   =      4    mixing-type and parameters
     AMIX     =   0.40;   BMIX     =  1.00
     AMIX_MAG =   1.60;   BMIX_MAG =  1.00
     AMIN     =   0.10
     WC   =   100.;   INIMIX=   1;  MIXPRE=   1;  MAXMIX= -45

 Intra band minimization:
   WEIMIN = 0.0000     energy-eigenvalue tresh-hold
   EBREAK =  0.17E-07  absolut break condition
   DEPER  =   0.30     relativ break condition

   TIME   =   0.40     timestep for ELM

  volume/ion in A,a.u.               =      22.97       155.02
  Fermi-wavevector in a.u.,A,eV,Ry     =   0.914184  1.727558 11.370836  0.835733
  Thomas-Fermi vector in A             =   2.038782

 Write flags
   LWAVE        =      T    write WAVECAR
   LDOWNSAMPLE  =      F    k-point downsampling of WAVECAR
   LCHARG       =      T    write CHGCAR
   LVTOT        =      T    write LOCPOT, total local potential
   LVHAR        =      F    write LOCPOT, Hartree potential only
   LELF         =      F    write electronic localiz. function (ELF)
   LORBIT       =     11    0 simple, 1 ext, 2 COOP (PROOUT), +10 PAW based schemes


 Dipole corrections
   LMONO  =      F    monopole corrections only (constant potential shift)
   LDIPOL =      F    correct potential (dipole corrections)
   IDIPOL =      0    1-x, 2-y, 3-z, 4-all directions
   EPSILON=  1.0000000 bulk dielectric constant

 Exchange correlation treatment:
   GGA     =    PS    GGA type
   LEXCH   =    14    internal setting for exchange type
   LIBXC   =     F    Libxc
   VOSKOWN =     0    Vosko Wilk Nusair interpolation
   LHFCALC =     F    Hartree Fock is set to
   LHFONE  =     F    Hartree Fock one center treatment
   AEXX    =    0.0000 exact exchange contribution

 Linear response parameters
   LEPSILON=     F    determine dielectric tensor
   LRPA    =     F    only Hartree local field effects (RPA)
   LNABLA  =     F    use nabla operator in PAW spheres
   LVEL    =     F    velocity operator in full k-point grid
   CSHIFT  =0.1000    complex shift for real part using Kramers Kronig
   OMEGAMAX=  -1.0    maximum frequency
   DEG_THRESHOLD= 0.2000000E-02 threshold for treating states as degnerate
   RTIME   =   -0.100 relaxation time in fs
  (WPLASMAI=    0.000 imaginary part of plasma frequency in eV, 0.658/RTIME)
   DFIELD  = 0.0000000 0.0000000 0.0000000 field for delta impulse in time

  Optional k-point grid parameters
   LKPOINTS_OPT  =     F    use optional k-point grid
   KPOINTS_OPT_MODE=     1    mode for optional k-point grid

 Orbital magnetization related:
   ORBITALMAG=     F  switch on orbital magnetization
   LCHIMAG   =     F  perturbation theory with respect to B field
   DQ        =  0.001000  dq finite difference perturbation B field
   LLRAUG    =     F  two centre corrections for induced B field



--------------------------------------------------------------------------------------------------------


 Static calculation
 charge density and potential will be updated during run
 spin polarized calculation
 RMM-DIIS sequential band-by-band and
  variant of blocked Davidson during initial phase
 perform sub-space diagonalisation
    before iterative eigenvector-optimisation
 modified Broyden-mixing scheme, WC =      100.0
 initial mixing is a Kerker type mixing with AMIX =  0.4000 and BMIX =      1.0000
 Hartree-type preconditioning will be used
 using additional bands          130
 reciprocal scheme for non local part
 use partial core corrections
 calculate Harris-corrections to forces
   (improved forces if not selfconsistent)
 use gradient corrections
 use of overlap-Matrix (Vanderbilt PP)
 Gauss-broadening in eV      SIGMA  =   0.05


--------------------------------------------------------------------------------------------------------


  energy-cutoff  :      500.00
  volume of cell :      160.80
      direct lattice vectors                 reciprocal lattice vectors
     5.437848350  0.000000000  0.000000000     0.183896265  0.000000000  0.000000000
     0.000000000  5.437848350  0.000000000     0.000000000  0.183896265  0.000000000
     0.000000000  0.000000000  5.437848350     0.000000000  0.000000000  0.183896265

  length of vectors
     5.437848350  5.437848350  5.437848350     0.183896265  0.183896265  0.183896265



 k-points in units of 2pi/SCALE and weight: pymatgen with grid density = 691 / numbe
   0.00000000  0.00000000  0.00000000       0.016
   0.04597407  0.00000000  0.00000000       0.094
   0.09194813  0.00000000  0.00000000       0.047
   0.04597407  0.04597407  0.00000000       0.188
   0.09194813  0.04597407  0.00000000       0.188
   0.09194813  0.09194813  0.00000000       0.047
   0.04597407  0.04597407  0.04597407       0.125
   0.09194813  0.04597407  0.04597407       0.188
   0.09194813  0.09194813  0.04597407       0.094
   0.09194813  0.09194813  0.09194813       0.016

 k-points in reciprocal lattice and weights: pymatgen with grid density = 691 / numbe
   0.00000000  0.00000000  0.00000000       0.016
   0.25000000  0.00000000  0.00000000       0.094
   0.50000000  0.00000000  0.00000000       0.047
   0.25000000  0.25000000  0.00000000       0.188
   0.50000000  0.25000000  0.00000000       0.188
   0.50000000  0.50000000  0.00000000       0.047
   0.25000000  0.25000000  0.25000000       0.125
   0.50000000  0.25000000  0.25000000       0.188
   0.50000000  0.50000000  0.25000000       0.094
   0.50000000  0.50000000  0.50000000       0.016

 position of ions in fractional coordinates (direct lattice)
   0.25330995  0.74669005  0.25330995
   0.00000000  0.00000000  0.50000000
   0.25330995  0.25330995  0.74669005
   0.00000000  0.50000000  0.00000000
   0.74669005  0.74669005  0.74669005
   0.50000000  0.00000000  0.00000000
   0.74669005  0.25330995  0.25330995

 position of ions in cartesian coordinates  (Angst):
   1.37746112  4.06038723  1.37746112
   0.00000000  0.00000000  2.71892418
   1.37746112  1.37746112  4.06038723
   0.00000000  2.71892418  0.00000000
   4.06038723  4.06038723  4.06038723
   2.71892418  0.00000000  0.00000000
   4.06038723  1.37746112  1.37746112



--------------------------------------------------------------------------------------------------------


 k-point   1 :   0.0000 0.0000 0.0000  plane waves:    4067
 k-point   2 :   0.2500 0.0000 0.0000  plane waves:    4072
 k-point   3 :   0.5000 0.0000 0.0000  plane waves:    4116
 k-point   4 :   0.2500 0.2500 0.0000  plane waves:    4080
 k-point   5 :   0.5000 0.2500 0.0000  plane waves:    4072
 k-point   6 :   0.5000 0.5000 0.0000  plane waves:    4076
 k-point   7 :   0.2500 0.2500 0.2500  plane waves:    4094
 k-point   8 :   0.5000 0.2500 0.2500  plane waves:    4076
 k-point   9 :   0.5000 0.5000 0.2500  plane waves:    4092
 k-point  10 :   0.5000 0.5000 0.5000  plane waves:    4032

 maximum and minimum number of plane-waves per node :      4116     4032

 maximum number of plane-waves:      4116
 maximum index in each direction:
   IXMAX=    9   IYMAX=    9   IZMAX=    9
   IXMIN=  -10   IYMIN=  -10   IZMIN=  -10


 serial   3D FFT for wavefunctions
 parallel 3D FFT for charge:
    minimum data exchange during FFTs selected (reduces bandwidth)


 total amount of memory used by VASP MPI-rank0    40713. kBytes
=======================================================================

   base      :      30000. kBytes
   nonl-proj :       3140. kBytes
   fftplans  :        508. kBytes
   grid      :       5640. kBytes
   one-center:         43. kBytes
   wavefun   :       1382. kBytes

     INWAV:  cpu time      0.0001: real time      0.0007
 Broyden mixing: mesh for mixing (old mesh)
   NGX = 19   NGY = 19   NGZ = 19
  (NGX  = 80   NGY  = 80   NGZ  = 80)
  gives a total of   6859 points

 initial charge density was supplied:
 charge density of overlapping atoms calculated
 number of electron      28.0000000 magnetization       0.0040000
 keeping initial charge density in first step


--------------------------------------------------------------------------------------------------------


 Maximum index for augmentation-charges          665 (set IRDMAX)


--------------------------------------------------------------------------------------------------------


 First call to EWALD:  gamma=   0.326
 Maximum number of real-space cells 3x 3x 3
 Maximum number of reciprocal cells 3x 3x 3

    FEWALD:  cpu time      0.0016: real time      0.0028


--------------------------------------- Iteration      1(   1)  ---------------------------------------


    POTLOK:  cpu time      0.0246: real time      0.0294
    SETDIJ:  cpu time      0.2009: real time      0.2009
     EDDAV:  cpu time      5.2008: real time      5.2018
       DOS:  cpu time      0.0032: real time      0.0032
    --------------------------------------------
      LOOP:  cpu time      5.4296: real time      5.4354

 eigenvalue-minimisations  :  5760
 total energy-change (2. order) :-0.1910440E+02  (-0.1139590E+04)
 number of electron      28.0000000 magnetization       0.0040000
 augmentation part       28.0000000 magnetization       0.0040000

 Free energy of the ion-electron system (eV)
  ---------------------------------------------------
  alpha Z        PSCENC =        10.25815623
  Ewald energy   TEWEN  =      -748.70534994
  -Hartree energ DENC   =       -56.50790335
  -exchange      EXHF   =         0.00000000
  -V(xc)+E(xc)   XCENC  =       -62.59124790
  PAW double counting   =       612.34974622     -491.33201668
  entropy T*S    EENTRO =        -0.00785321
  eigenvalues    EBANDS =        -0.59605371
  atomic energy  EATOM  =       718.02812073
  Solvation  Ediel_sol  =         0.00000000
  ---------------------------------------------------
  free energy    TOTEN  =       -19.10440161 eV

  energy without entropy =      -19.09654840  energy(sigma->0) =      -19.10047501


--------------------------------------------------------------------------------------------------------




--------------------------------------- Iteration      1(   2)  ---------------------------------------


     EDDAV:  cpu time     12.3842: real time     12.3942
       DOS:  cpu time      0.0028: real time      0.0028
    --------------------------------------------
      LOOP:  cpu time     12.3870: real time     12.3970

 eigenvalue-minimisations  :  8640
 total energy-change (2. order) :-0.1864924E+02  (-0.1864234E+02)
 number of electron      28.0000000 magnetization       0.0040000
 augmentation part       28.0000000 magnetization       0.0040000

 Free energy of the ion-electron system (eV)
  ---------------------------------------------------
  alpha Z        PSCENC =        10.25815623
  Ewald energy   TEWEN  =      -748.70534994
  -Hartree energ DENC   =       -56.50790335
  -exchange      EXHF   =         0.00000000
  -V(xc)+E(xc)   XCENC  =       -62.59124790
  PAW double counting   =       612.34974622     -491.33201668
  entropy T*S    EENTRO =        -0.01066835
  eigenvalues    EBANDS =       -19.24247989
  atomic energy  EATOM  =       718.02812073
  Solvation  Ediel_sol  =         0.00000000
  ---------------------------------------------------
  free energy    TOTEN  =       -37.75364293 eV

  energy without entropy =      -37.74297458  energy(sigma->0) =      -37.74830875


--------------------------------------------------------------------------------------------------------




--------------------------------------- Iteration      1(   3)  ---------------------------------------


     EDDAV:  cpu time      5.3474: real time      5.3656
       DOS:  cpu time      0.0028: real time      0.0028
    --------------------------------------------
      LOOP:  cpu time      5.3502: real time      5.3683

 eigenvalue-minimisations  :  5760
 total energy-change (2. order) :-0.1499816E-01  (-0.1499811E-01)
 number of electron      28.0000000 magnetization       0.0040000
 augmentation part       28.0000000 magnetization       0.0040000

 Free energy of the ion-electron system (eV)
  ---------------------------------------------------
  alpha Z        PSCENC =        10.25815623
  Ewald energy   TEWEN  =      -748.70534994
  -Hartree energ DENC   =       -56.50790335
  -exchange      EXHF   =         0.00000000
  -V(xc)+E(xc)   XCENC  =       -62.59124790
  PAW double counting   =       612.34974622     -491.33201668
  entropy T*S    EENTRO =        -0.01066889
  eigenvalues    EBANDS =       -19.25747751
  atomic energy  EATOM  =       718.02812073
  Solvation  Ediel_sol  =         0.00000000
  ---------------------------------------------------
  free energy    TOTEN  =       -37.76864109 eV

  energy without entropy =      -37.75797221  energy(sigma->0) =      -37.76330665


--------------------------------------------------------------------------------------------------------




--------------------------------------- Iteration      1(   4)  ---------------------------------------


     EDDAV:  cpu time     25.4593: real time     25.4782
       DOS:  cpu time      0.0028: real time      0.0028
    --------------------------------------------
      LOOP:  cpu time     25.4621: real time     25.4811

 eigenvalue-minimisations  : 11520
 total energy-change (2. order) :-0.7639968E-05  (-0.7639802E-05)
 number of electron      28.0000000 magnetization       0.0040000
 augmentation part       28.0000000 magnetization       0.0040000

 Free energy of the ion-electron system (eV)
  ---------------------------------------------------
  alpha Z        PSCENC =        10.25815623
  Ewald energy   TEWEN  =      -748.70534994
  -Hartree energ DENC   =       -56.50790335
  -exchange      EXHF   =         0.00000000
  -V(xc)+E(xc)   XCENC  =       -62.59124790
  PAW double counting   =       612.34974622     -491.33201668
  entropy T*S    EENTRO =        -0.01066889
  eigenvalues    EBANDS =       -19.25748515
  atomic energy  EATOM  =       718.02812073
  Solvation  Ediel_sol  =         0.00000000
  ---------------------------------------------------
  free energy    TOTEN  =       -37.76864873 eV

  energy without entropy =      -37.75797984  energy(sigma->0) =      -37.76331429


--------------------------------------------------------------------------------------------------------




--------------------------------------- Iteration      1(   5)  ---------------------------------------


     EDDAV:  cpu time      5.6737: real time      5.6935
       DOS:  cpu time      0.0029: real time      0.0029
    CHARGE:  cpu time      0.0454: real time      0.0454
    MIXING:  cpu time      0.0020: real time      0.0021
    --------------------------------------------
      LOOP:  cpu time      5.7241: real time      5.7441

 eigenvalue-minimisations  :  5760
 total energy-change (2. order) : 0.7776180E-10  (-0.2145322E-11)
 number of electron      28.0000001 magnetization       0.0031063
 augmentation part       -1.6672305 magnetization      -0.0000289

 Broyden mixing:
  rms(total) = 0.82235E+00    rms(broyden)= 0.82235E+00
  rms(prec ) = 0.11964E+01
  weight for this iteration     100.00

 Free energy of the ion-electron system (eV)
  ---------------------------------------------------
  alpha Z        PSCENC =        10.25815623
  Ewald energy   TEWEN  =      -748.70534994
  -Hartree energ DENC   =       -56.50790335
  -exchange      EXHF   =         0.00000000
  -V(xc)+E(xc)   XCENC  =       -62.59124790
  PAW double counting   =       612.34974622     -491.33201668
  entropy T*S    EENTRO =        -0.01066889
  eigenvalues    EBANDS =       -19.25748515
  atomic energy  EATOM  =       718.02812073
  Solvation  Ediel_sol  =         0.00000000
  ---------------------------------------------------
  free energy    TOTEN  =       -37.76864873 eV

  energy without entropy =      -37.75797984  energy(sigma->0) =      -37.76331429


--------------------------------------------------------------------------------------------------------




--------------------------------------- Iteration      1(   6)  ---------------------------------------


    POTLOK:  cpu time      0.0258: real time      0.0428
    SETDIJ:  cpu time      0.2029: real time      0.2029
    EDDIAG:  cpu time      0.8084: real time      0.8087
  RMM-DIIS:  cpu time      0.1988: real time      0.1996
    ORTHCH:  cpu time      0.1135: real time      0.1135
       DOS:  cpu time      0.0026: real time      0.0026
    CHARGE:  cpu time      0.0389: real time      0.0390
    MIXING:  cpu time      0.0006: real time      0.0006
    --------------------------------------------
      LOOP:  cpu time      1.3915: real time      1.4096

 eigenvalue-minimisations  :  5820
 total energy-change (2. order) : 0.5770035E+00  (-0.1046455E-02)
 number of electron      28.0000001 magnetization       0.0019414
 augmentation part       -1.6562149 magnetization      -0.0006018

 Broyden mixing:
  rms(total) = 0.48062E+00    rms(broyden)= 0.48062E+00
  rms(prec ) = 0.64494E+00
  weight for this iteration     100.00

 eigenvalues of (default mixing * dielectric matrix)
  average eigenvalue GAMMA=   2.3513
  2.3513

 Free energy of the ion-electron system (eV)
  ---------------------------------------------------
  alpha Z        PSCENC =        10.25815623
  Ewald energy   TEWEN  =      -748.70534994
  -Hartree energ DENC   =       -61.35369568
  -exchange      EXHF   =         0.00000000
  -V(xc)+E(xc)   XCENC  =       -61.98362785
  PAW double counting   =      1203.27112204    -1082.49996082
  entropy T*S    EENTRO =        -0.00734453
  eigenvalues    EBANDS =       -14.19906536
  atomic energy  EATOM  =       718.02812073
  Solvation  Ediel_sol  =         0.00000000
  ---------------------------------------------------
  free energy    TOTEN  =       -37.19164518 eV

  energy without entropy =      -37.18430065  energy(sigma->0) =      -37.18797292


--------------------------------------------------------------------------------------------------------




--------------------------------------- Iteration      1(   7)  ---------------------------------------


    POTLOK:  cpu time      0.0224: real time      0.0398
    SETDIJ:  cpu time      0.2004: real time      0.2004
    EDDIAG:  cpu time      0.7868: real time      0.7868
  RMM-DIIS:  cpu time      0.2865: real time      0.2865
    ORTHCH:  cpu time      0.1118: real time      0.1118
       DOS:  cpu time      0.0024: real time      0.0024
    CHARGE:  cpu time      0.0381: real time      0.0381
    MIXING:  cpu time      0.0004: real time      0.0004
    --------------------------------------------
      LOOP:  cpu time      1.4489: real time      1.4662

 eigenvalue-minimisations  :  6379
 total energy-change (2. order) : 0.1655876E+00  (-0.1907466E-02)
 number of electron      28.0000001 magnetization       0.0013525
 augmentation part       -1.6475900 magnetization      -0.0002927

 Broyden mixing:
  rms(total) = 0.88275E-01    rms(broyden)= 0.88275E-01
  rms(prec ) = 0.12952E+00
  weight for this iteration     100.00

 eigenvalues of (default mixing * dielectric matrix)
  average eigenvalue GAMMA=   1.8575
  1.3805  2.3344

 Free energy of the ion-electron system (eV)
  ---------------------------------------------------
  alpha Z        PSCENC =        10.25815623
  Ewald energy   TEWEN  =      -748.70534994
  -Hartree energ DENC   =       -66.44700207
  -exchange      EXHF   =         0.00000000
  -V(xc)+E(xc)   XCENC  =       -61.20740383
  PAW double counting   =      2229.18747323    -2108.67438461
  entropy T*S    EENTRO =        -0.00656301
  eigenvalues    EBANDS =        -9.45910429
  atomic energy  EATOM  =       718.02812073
  Solvation  Ediel_sol  =         0.00000000
  ---------------------------------------------------
  free energy    TOTEN  =       -37.02605756 eV

  energy without entropy =      -37.01949455  energy(sigma->0) =      -37.02277606


--------------------------------------------------------------------------------------------------------




--------------------------------------- Iteration      1(   8)  ---------------------------------------


    POTLOK:  cpu time      0.0218: real time      0.0411
    SETDIJ:  cpu time      0.2011: real time      0.2011
    EDDIAG:  cpu time      0.7709: real time      0.7710
  RMM-DIIS:  cpu time      0.2808: real time      0.2808
    ORTHCH:  cpu time      0.1118: real time      0.1118
       DOS:  cpu time      0.0025: real time      0.0025
    CHARGE:  cpu time      0.0372: real time      0.0372
    MIXING:  cpu time      0.0004: real time      0.0004
    --------------------------------------------
      LOOP:  cpu time      1.4266: real time      1.4459

 eigenvalue-minimisations  :  6255
 total energy-change (2. order) : 0.5881313E-02  (-0.2642815E-03)
 number of electron      28.0000001 magnetization       0.0009169
 augmentation part       -1.6491826 magnetization      -0.0001925

 Broyden mixing:
  rms(total) = 0.17554E-01    rms(broyden)= 0.17554E-01
  rms(prec ) = 0.25642E-01
  weight for this iteration     100.00

 eigenvalues of (default mixing * dielectric matrix)
  average eigenvalue GAMMA=   1.7947
  1.6139  1.6139  2.1563

 Free energy of the ion-electron system (eV)
  ---------------------------------------------------
  alpha Z        PSCENC =        10.25815623
  Ewald energy   TEWEN  =      -748.70534994
  -Hartree energ DENC   =       -66.73409103
  -exchange      EXHF   =         0.00000000
  -V(xc)+E(xc)   XCENC  =       -61.06517901
  PAW double counting   =      2468.33406649    -2347.84231587
  entropy T*S    EENTRO =        -0.00653995
  eigenvalues    EBANDS =        -9.28704388
  atomic energy  EATOM  =       718.02812073
  Solvation  Ediel_sol  =         0.00000000
  ---------------------------------------------------
  free energy    TOTEN  =       -37.02017625 eV

  energy without entropy =      -37.01363629  energy(sigma->0) =      -37.01690627


--------------------------------------------------------------------------------------------------------




--------------------------------------- Iteration      1(   9)  ---------------------------------------


    POTLOK:  cpu time      0.0377: real time      0.0406
    SETDIJ:  cpu time      0.2002: real time      0.2002
    EDDIAG:  cpu time      0.7680: real time      0.7682
  RMM-DIIS:  cpu time      0.3109: real time      0.3109
    ORTHCH:  cpu time      0.1107: real time      0.1107
       DOS:  cpu time      0.0028: real time      0.0028
    CHARGE:  cpu time      0.0368: real time      0.0368
    MIXING:  cpu time      0.0004: real time      0.0004
    --------------------------------------------
      LOOP:  cpu time      1.4675: real time      1.4705

 eigenvalue-minimisations  :  6777
 total energy-change (2. order) : 0.2833949E-04  (-0.2205238E-04)
 number of electron      28.0000001 magnetization       0.0004872
 augmentation part       -1.6501746 magnetization      -0.0002264

 Broyden mixing:
  rms(total) = 0.92465E-02    rms(broyden)= 0.92465E-02
  rms(prec ) = 0.11429E-01
  weight for this iteration     100.00

 eigenvalues of (default mixing * dielectric matrix)
  average eigenvalue GAMMA=   1.9231
  2.3753  2.3753  1.4710  1.4710

 Free energy of the ion-electron system (eV)
  ---------------------------------------------------
  alpha Z        PSCENC =        10.25815623
  Ewald energy   TEWEN  =      -748.70534994
  -Hartree energ DENC   =       -66.71072500
  -exchange      EXHF   =         0.00000000
  -V(xc)+E(xc)   XCENC  =       -61.05239324
  PAW double counting   =      2450.46007718    -2329.96232407
  entropy T*S    EENTRO =        -0.00656474
  eigenvalues    EBANDS =        -9.32914506
  atomic energy  EATOM  =       718.02812073
  Solvation  Ediel_sol  =         0.00000000
  ---------------------------------------------------
  free energy    TOTEN  =       -37.02014791 eV

  energy without entropy =      -37.01358317  energy(sigma->0) =      -37.01686554


--------------------------------------------------------------------------------------------------------




--------------------------------------- Iteration      1(  10)  ---------------------------------------


    POTLOK:  cpu time      0.0198: real time      0.0400
    SETDIJ:  cpu time      0.2006: real time      0.2006
    EDDIAG:  cpu time      0.7563: real time      0.7563
  RMM-DIIS:  cpu time      0.3075: real time      0.3075
    ORTHCH:  cpu time      0.1108: real time      0.1109
       DOS:  cpu time      0.0025: real time      0.0025
    CHARGE:  cpu time      0.0368: real time      0.0368
    MIXING:  cpu time      0.0004: real time      0.0004
    --------------------------------------------
      LOOP:  cpu time      1.4348: real time      1.4551

 eigenvalue-minimisations  :  6636
 total energy-change (2. order) :-0.3236384E-04  (-0.3471122E-05)
 number of electron      28.0000001 magnetization       0.0003666
 augmentation part       -1.6505120 magnetization      -0.0000838

 Broyden mixing:
  rms(total) = 0.28605E-02    rms(broyden)= 0.28605E-02
  rms(prec ) = 0.40317E-02
  weight for this iteration     100.00

 eigenvalues of (default mixing * dielectric matrix)
  average eigenvalue GAMMA=   1.7618
  2.4754  2.4754  1.5714  1.5714  0.7155

 Free energy of the ion-electron system (eV)
  ---------------------------------------------------
  alpha Z        PSCENC =        10.25815623
  Ewald energy   TEWEN  =      -748.70534994
  -Hartree energ DENC   =       -66.69973162
  -exchange      EXHF   =         0.00000000
  -V(xc)+E(xc)   XCENC  =       -61.04585423
  PAW double counting   =      2428.63656396    -2308.13670930
  entropy T*S    EENTRO =        -0.00657609
  eigenvalues    EBANDS =        -9.34879999
  atomic energy  EATOM  =       718.02812073
  Solvation  Ediel_sol  =         0.00000000
  ---------------------------------------------------
  free energy    TOTEN  =       -37.02018027 eV

  energy without entropy =      -37.01360418  energy(sigma->0) =      -37.01689222


--------------------------------------------------------------------------------------------------------




--------------------------------------- Iteration      1(  11)  ---------------------------------------


    POTLOK:  cpu time      0.0318: real time      0.0399
    SETDIJ:  cpu time      0.2004: real time      0.2004
    EDDIAG:  cpu time      0.7491: real time      0.7492
  RMM-DIIS:  cpu time      0.3174: real time      0.3174
    ORTHCH:  cpu time      0.1106: real time      0.1106
       DOS:  cpu time      0.0024: real time      0.0025
    --------------------------------------------
      LOOP:  cpu time      1.4117: real time      1.4200

 eigenvalue-minimisations  :  6496
 total energy-change (2. order) : 0.2123922E-05  (-0.5497200E-06)
 number of electron      28.0000001 magnetization       0.0003666
 augmentation part       -1.6505120 magnetization      -0.0000838

 Free energy of the ion-electron system (eV)
  ---------------------------------------------------
  alpha Z        PSCENC =        10.25815623
  Ewald energy   TEWEN  =      -748.70534994
  -Hartree energ DENC   =       -66.73713930
  -exchange      EXHF   =         0.00000000
  -V(xc)+E(xc)   XCENC  =       -61.04082780
  PAW double counting   =      2423.10026356    -2302.60158857
  entropy T*S    EENTRO =        -0.00657520
  eigenvalues    EBANDS =        -9.31523784
  atomic energy  EATOM  =       718.02812073
  Solvation  Ediel_sol  =         0.00000000
  ---------------------------------------------------
  free energy    TOTEN  =       -37.02017815 eV

  energy without entropy =      -37.01360294  energy(sigma->0) =      -37.01689055


--------------------------------------------------------------------------------------------------------




 average (electrostatic) potential at core
  the test charge radii are     0.9892
  (the norm of the test charge is              1.0000)
       1 -84.6943       2 -84.4913       3 -84.6943       4 -84.4913       5 -84.6943
       6 -84.4913       7 -84.6943



 E-fermi :   4.7726     XC(G=0):  -9.0745     alpha+bet :-10.4411

 Fermi energy:         4.7725821299

 spin component 1

 k-point     1 :       0.0000    0.0000    0.0000
  band No.  band energies     occupation
      1      -6.9484      1.00000
      2      -3.2770      1.00000
      3      -3.2770      1.00000
      4      -2.9058      1.00000
      5      -2.9058      1.00000
      6      -2.9058      1.00000
      7       1.2517      1.00000
      8       1.6810      1.00000
      9       1.6810      1.00000
     10       1.6810      1.00000
     11       2.9052      1.00000
     12       2.9052      1.00000
     13       2.9052      1.00000
     14       5.5847      0.00000
     15       5.5847      0.00000
     16       5.5847      0.00000
     17       5.5980      0.00000
     18       5.5980      0.00000
     19       6.1479      0.00000
     20       6.1479      0.00000
     21       6.1479      0.00000
     22       6.2456      0.00000
     23       8.5717      0.00000
     24       8.5717      0.00000
     25       8.5717      0.00000
     26      10.1991      0.00000
     27      12.9387      0.00000
     28      12.9387      0.00000
     29      13.1550      0.00000
     30      14.5944      0.00000
     31      14.5944      0.00000
     32      14.5944      0.00000
     33      15.5838      0.00000
     34      15.5838      0.00000
     35      15.5838      0.00000
     36      15.6442      0.00000
     37      15.6442      0.00000
     38      15.6442      0.00000
     39      16.3090      0.00000
     40      16.3090      0.00000
     41      16.3090      0.00000
     42      16.9909      0.00000
     43      17.4357      0.00000
     44      17.4357      0.00000
     45      17.4812      0.00000
     46      17.4812      0.00000
     47      17.4812      0.00000
     48      18.1905      0.00000
     49      18.1905      0.00000
     50      18.1905      0.00000
     51      19.1793      0.00000
     52      19.1817      0.00000
     53      19.1817      0.00000
     54      20.2706      0.00000
     55      20.9541      0.00000
     56      20.9541      0.00000
     57      20.9541      0.00000
     58      23.5510      0.00000
     59      23.6899      0.00000
     60      23.6899      0.00000
     61      23.6899      0.00000
     62      24.4104      0.00000
     63      24.4104      0.00000
     64      24.4104      0.00000
     65      24.8579      0.00000
     66      24.8579      0.00000
     67      24.8579      0.00000
     68      24.9442      0.00000
     69      24.9442      0.00000
     70      24.9442      0.00000
     71      25.3508      0.00000
     72      25.3508      0.00000
     73      26.0998      0.00000
     74      26.0998      0.00000
     75      26.2713      0.00000
     76      26.2713      0.00000
     77      26.2713      0.00000
     78      27.1542      0.00000
     79      27.1542      0.00000
     80      27.1542      0.00000
     81      27.5348      0.00000
     82      28.4177      0.00000
     83      28.4177      0.00000
     84      28.4177      0.00000
     85      29.3562      0.00000
     86      29.3562      0.00000
     87      30.8561      0.00000
     88      31.6578      0.00000
     89      31.6578      0.00000
     90      31.6578      0.00000
     91      32.9466      0.00000
     92      32.9466      0.00000
     93      33.1682      0.00000
     94      33.1682      0.00000
     95      33.1682      0.00000
     96      33.8457      0.00000
     97      33.8457      0.00000
     98      33.8457      0.00000
     99      35.1337      0.00000
    100      35.1337      0.00000
    101      35.1337      0.00000
    102      37.5402      0.00000
    103      37.5402      0.00000
    104      37.5402      0.00000
    105      38.8940      0.00000
    106      38.8940      0.00000
    107      38.8940      0.00000
    108      39.0630      0.00000
    109      39.0630      0.00000
    110      39.0630      0.00000
    111      39.1462      0.00000
    112      39.1462      0.00000
    113      39.3332      0.00000
    114      40.2045      0.00000
    115      40.3706      0.00000
    116      40.3706      0.00000
    117      40.3706      0.00000
    118      40.8725      0.00000
    119      40.8725      0.00000
    120      40.8725      0.00000
    121      41.8991      0.00000
    122      41.8991      0.00000
    123      41.8991      0.00000
    124      42.2099      0.00000
    125      42.2099      0.00000
    126      42.5685      0.00000
    127      42.7993      0.00000
    128      42.9780      0.00000
    129      42.9780      0.00000
    130      43.2085      0.00000
    131      43.2085      0.00000
    132      43.2085      0.00000
    133      44.2528      0.00000
    134      44.2528      0.00000
    135      44.2528      0.00000
    136      44.8096      0.00000
    137      44.8099      0.00000
    138      45.1348      0.00000
    139      45.1348      0.00000
    140      45.1348      0.00000
    141      45.7594      0.00000
    142      45.7594      0.00000
    143      45.7594      0.00000
    144      46.1533      0.00000

 k-point     2 :       0.2500    0.0000    0.0000
  band No.  band energies     occupation
      1      -6.7045      1.00000
      2      -4.6097      1.00000
      3      -3.2066      1.00000
      4      -2.8385      1.00000
      5      -2.8385      1.00000
      6      -1.5248      1.00000
      7       1.1842      1.00000
      8       1.4359      1.00000
      9       1.4359      1.00000
     10       1.5579      1.00000
     11       2.1605      1.00000
     12       2.7095      1.00000
     13       2.7095      1.00000
     14       4.8955      0.00025
     15       5.3222      0.00000
     16       5.3222      0.00000
     17       5.6916      0.00000
     18       6.3750      0.00000
     19       6.7918      0.00000
     20       7.0015      0.00000
     21       7.0015      0.00000
     22       7.4719      0.00000
     23       8.1449      0.00000
     24       9.6104      0.00000
     25       9.6104      0.00000
     26      10.7345      0.00000
     27      11.9686      0.00000
     28      12.4301      0.00000
     29      12.4684      0.00000
     30      12.4684      0.00000
     31      13.2785      0.00000
     32      13.6132      0.00000
     33      14.2705      0.00000
     34      14.3358      0.00000
     35      14.3358      0.00000
     36      15.0600      0.00000
     37      15.9194      0.00000
     38      15.9604      0.00000
     39      15.9604      0.00000
     40      16.7654      0.00000
     41      16.7820      0.00000
     42      16.7820      0.00000
     43      16.9704      0.00000
     44      17.4991      0.00000
     45      17.6845      0.00000
     46      18.3689      0.00000
     47      18.3689      0.00000
     48      18.9897      0.00000
     49      18.9897      0.00000
     50      19.4243      0.00000
     51      19.9097      0.00000
     52      19.9169      0.00000
     53      20.6598      0.00000
     54      21.0737      0.00000
     55      21.4014      0.00000
     56      21.4014      0.00000
     57      21.5984      0.00000
     58      22.0459      0.00000
     59      22.2251      0.00000
     60      22.2251      0.00000
     61      22.9018      0.00000
     62      23.3131      0.00000
     63      23.3131      0.00000
     64      23.4759      0.00000
     65      23.9070      0.00000
     66      24.3110      0.00000
     67      24.3110      0.00000
     68      24.5344      0.00000
     69      24.8737      0.00000
     70      25.7744      0.00000
     71      25.7744      0.00000
     72      26.3290      0.00000
     73      26.8328      0.00000
     74      27.0053      0.00000
     75      27.0053      0.00000
     76      27.5498      0.00000
     77      28.0941      0.00000
     78      28.1886      0.00000
     79      28.3950      0.00000
     80      28.4819      0.00000
     81      28.5945      0.00000
     82      28.5945      0.00000
     83      29.2952      0.00000
     84      29.4651      0.00000
     85      29.4651      0.00000
     86      29.9576      0.00000
     87      30.2154      0.00000
     88      30.7477      0.00000
     89      31.1403      0.00000
     90      31.1403      0.00000
     91      31.4324      0.00000
     92      32.7861      0.00000
     93      32.7861      0.00000
     94      32.8628      0.00000
     95      33.8676      0.00000
     96      34.6618      0.00000
     97      34.6618      0.00000
     98      34.7498      0.00000
     99      35.1744      0.00000
    100      36.1001      0.00000
    101      36.1001      0.00000
    102      36.3704      0.00000
    103      36.3704      0.00000
    104      36.7469      0.00000
    105      36.8571      0.00000
    106      36.9784      0.00000
    107      37.5323      0.00000
    108      37.5323      0.00000
    109      37.5716      0.00000
    110      38.2259      0.00000
    111      38.2259      0.00000
    112      38.3265      0.00000
    113      38.6388      0.00000
    114      39.8009      0.00000
    115      39.8009      0.00000
    116      39.9519      0.00000
    117      40.4431      0.00000
    118      40.5306      0.00000
    119      40.5306      0.00000
    120      40.7185      0.00000
    121      40.9129      0.00000
    122      41.3798      0.00000
    123      41.9236      0.00000
    124      42.0408      0.00000
    125      42.3672      0.00000
    126      42.3672      0.00000
    127      42.7911      0.00000
    128      43.3371      0.00000
    129      43.3371      0.00000
    130      43.3765      0.00000
    131      44.1591      0.00000
    132      44.1686      0.00000
    133      44.4697      0.00000
    134      44.7052      0.00000
    135      44.7052      0.00000
    136      44.8685      0.00000
    137      45.0453      0.00000
    138      45.0453      0.00000
    139      45.2112      0.00000
    140      45.3365      0.00000
    141      45.6138      0.00000
    142      45.6138      0.00000
    143      45.9975      0.00000
    144      45.9979      0.00000

 k-point     3 :       0.5000    0.0000    0.0000
  band No.  band energies     occupation
      1      -6.2124      1.00000
      2      -5.5461      1.00000
      3      -3.1299      1.00000
      4      -2.7656      1.00000
      5      -2.7656      1.00000
      6      -0.5659      1.00000
      7       0.7875      1.00000
      8       0.9136      1.00000
      9       1.1414      1.00000
     10       1.1414      1.00000
     11       2.7366      1.00000
     12       2.7366      1.00000
     13       2.9327      1.00000
     14       3.5073      1.00000
     15       4.8348      0.03915
     16       4.8348      0.03915
     17       6.1288      0.00000
     18       6.4165      0.00000
     19       8.1617      0.00000
     20       8.8338      0.00000
     21       9.1630      0.00000
     22       9.1630      0.00000
     23       9.1725      0.00000
     24       9.5566      0.00000
     25       9.8003      0.00000
     26       9.8003      0.00000
     27      10.4971      0.00000
     28      10.6544      0.00000
     29      11.0500      0.00000
     30      11.0500      0.00000
     31      12.8677      0.00000
     32      12.8677      0.00000
     33      13.6242      0.00000
     34      13.7382      0.00000
     35      14.8571      0.00000
     36      14.9352      0.00000
     37      15.1363      0.00000
     38      15.9540      0.00000
     39      15.9540      0.00000
     40      16.2795      0.00000
     41      16.6051      0.00000
     42      17.5224      0.00000
     43      17.5708      0.00000
     44      17.5708      0.00000
     45      18.1802      0.00000
     46      18.3702      0.00000
     47      18.5295      0.00000
     48      18.5295      0.00000
     49      19.2507      0.00000
     50      19.4312      0.00000
     51      19.4312      0.00000
     52      20.3970      0.00000
     53      21.3587      0.00000
     54      21.3587      0.00000
     55      21.3620      0.00000
     56      21.6192      0.00000
     57      22.5534      0.00000
     58      22.5534      0.00000
     59      22.5940      0.00000
     60      22.5940      0.00000
     61      23.0749      0.00000
     62      23.0983      0.00000
     63      23.4890      0.00000
     64      23.4890      0.00000
     65      23.5357      0.00000
     66      23.9593      0.00000
     67      24.1514      0.00000
     68      24.3296      0.00000
     69      24.8173      0.00000
     70      25.6764      0.00000
     71      26.1335      0.00000
     72      26.1335      0.00000
     73      26.4508      0.00000
     74      26.6985      0.00000
     75      26.6985      0.00000
     76      26.8325      0.00000
     77      27.0267      0.00000
     78      27.6011      0.00000
     79      28.9111      0.00000
     80      29.5397      0.00000
     81      29.7498      0.00000
     82      29.7498      0.00000
     83      30.0193      0.00000
     84      31.3661      0.00000
     85      31.7535      0.00000
     86      31.7535      0.00000
     87      31.8293      0.00000
     88      32.0061      0.00000
     89      32.0922      0.00000
     90      32.3677      0.00000
     91      32.3677      0.00000
     92      32.4069      0.00000
     93      32.5015      0.00000
     94      32.5015      0.00000
     95      33.5857      0.00000
     96      33.9068      0.00000
     97      33.9068      0.00000
     98      34.1065      0.00000
     99      34.2566      0.00000
    100      34.5062      0.00000
    101      34.7905      0.00000
    102      34.7905      0.00000
    103      34.8134      0.00000
    104      35.3259      0.00000
    105      35.3259      0.00000
    106      35.8333      0.00000
    107      35.9702      0.00000
    108      35.9702      0.00000
    109      36.5252      0.00000
    110      37.8768      0.00000
    111      38.4587      0.00000
    112      38.5729      0.00000
    113      38.5729      0.00000
    114      39.7824      0.00000
    115      39.9139      0.00000
    116      40.0409      0.00000
    117      40.4211      0.00000
    118      40.4211      0.00000
    119      40.4682      0.00000
    120      41.4082      0.00000
    121      41.6402      0.00000
    122      41.6568      0.00000
    123      41.6568      0.00000
    124      41.8461      0.00000
    125      41.8461      0.00000
    126      42.3978      0.00000
    127      42.4629      0.00000
    128      42.4629      0.00000
    129      42.4812      0.00000
    130      42.6628      0.00000
    131      43.1742      0.00000
    132      43.1742      0.00000
    133      44.6064      0.00000
    134      44.8292      0.00000
    135      44.8292      0.00000
    136      44.8895      0.00000
    137      45.1679      0.00000
    138      45.3372      0.00000
    139      45.3373      0.00000
    140      45.3994      0.00000
    141      45.4914      0.00000
    142      45.9213      0.00000
    143      46.4501      0.00000
    144      46.6458      0.00000

 k-point     4 :       0.2500    0.2500    0.0000
  band No.  band energies     occupation
      1      -6.4647      1.00000
      2      -4.6731      1.00000
      3      -4.1902      1.00000
      4      -2.9249      1.00000
      5      -2.0133      1.00000
      6      -1.1500      1.00000
      7       0.4908      1.00000
      8       1.3124      1.00000
      9       1.4474      1.00000
     10       1.8457      1.00000
     11       1.8484      1.00000
     12       2.8075      1.00000
     13       2.9228      1.00000
     14       3.9725      1.00000
     15       4.7515      0.72493
     16       5.7726      0.00000
     17       6.1887      0.00000
     18       6.7805      0.00000
     19       7.1777      0.00000
     20       7.4583      0.00000
     21       7.5741      0.00000
     22       9.0323      0.00000
     23       9.1469      0.00000
     24       9.3021      0.00000
     25       9.4739      0.00000
     26      10.3093      0.00000
     27      11.4976      0.00000
     28      11.5188      0.00000
     29      12.0002      0.00000
     30      12.3920      0.00000
     31      12.6230      0.00000
     32      13.1897      0.00000
     33      13.2937      0.00000
     34      14.0036      0.00000
     35      14.1690      0.00000
     36      14.7772      0.00000
     37      15.0261      0.00000
     38      15.5422      0.00000
     39      15.7922      0.00000
     40      16.1296      0.00000
     41      16.3574      0.00000
     42      16.6983      0.00000
     43      17.4833      0.00000
     44      18.1454      0.00000
     45      18.5629      0.00000
     46      18.6437      0.00000
     47      18.9541      0.00000
     48      19.2153      0.00000
     49      19.4963      0.00000
     50      19.5419      0.00000
     51      19.7450      0.00000
     52      19.9033      0.00000
     53      20.3473      0.00000
     54      20.6997      0.00000
     55      21.1708      0.00000
     56      21.2444      0.00000
     57      21.4157      0.00000
     58      22.3146      0.00000
     59      22.3493      0.00000
     60      22.6767      0.00000
     61      22.9352      0.00000
     62      23.0257      0.00000
     63      23.2708      0.00000
     64      23.8373      0.00000
     65      24.4323      0.00000
     66      24.6919      0.00000
     67      24.9048      0.00000
     68      25.0660      0.00000
     69      25.9387      0.00000
     70      26.0321      0.00000
     71      26.2653      0.00000
     72      26.3631      0.00000
     73      26.4146      0.00000
     74      26.9772      0.00000
     75      27.0815      0.00000
     76      27.2060      0.00000
     77      27.4079      0.00000
     78      27.7824      0.00000
     79      28.3072      0.00000
     80      28.5445      0.00000
     81      28.6642      0.00000
     82      29.0628      0.00000
     83      29.3040      0.00000
     84      29.9191      0.00000
     85      30.2844      0.00000
     86      30.5290      0.00000
     87      30.8931      0.00000
     88      31.0420      0.00000
     89      31.9609      0.00000
     90      32.2142      0.00000
     91      32.5325      0.00000
     92      32.8015      0.00000
     93      32.9733      0.00000
     94      33.2376      0.00000
     95      33.3622      0.00000
     96      33.5955      0.00000
     97      34.2469      0.00000
     98      34.5404      0.00000
     99      34.6695      0.00000
    100      35.0970      0.00000
    101      35.5244      0.00000
    102      35.5906      0.00000
    103      36.0647      0.00000
    104      36.3383      0.00000
    105      36.9759      0.00000
    106      37.0485      0.00000
    107      37.3202      0.00000
    108      37.6057      0.00000
    109      37.7678      0.00000
    110      37.7890      0.00000
    111      37.9202      0.00000
    112      38.2877      0.00000
    113      38.4990      0.00000
    114      38.7620      0.00000
    115      38.9392      0.00000
    116      39.1982      0.00000
    117      39.4771      0.00000
    118      39.5302      0.00000
    119      40.0568      0.00000
    120      40.1031      0.00000
    121      40.4822      0.00000
    122      40.9119      0.00000
    123      41.4422      0.00000
    124      42.0569      0.00000
    125      42.0570      0.00000
    126      42.2886      0.00000
    127      42.4540      0.00000
    128      42.9896      0.00000
    129      43.0912      0.00000
    130      43.2509      0.00000
    131      43.3555      0.00000
    132      43.4325      0.00000
    133      44.1453      0.00000
    134      44.2814      0.00000
    135      44.6144      0.00000
    136      44.7615      0.00000
    137      44.8301      0.00000
    138      44.9633      0.00000
    139      45.2660      0.00000
    140      45.7679      0.00000
    141      45.8203      0.00000
    142      46.1039      0.00000
    143      46.2968      0.00000
    144      46.5507      0.00000

 k-point     5 :       0.5000    0.2500    0.0000
  band No.  band energies     occupation
      1      -5.9695      1.00000
      2      -5.4047      1.00000
      3      -4.1992      1.00000
      4      -3.0687      1.00000
      5      -1.7414      1.00000
      6      -0.6759      1.00000
      7       0.3495      1.00000
      8       0.5886      1.00000
      9       1.4133      1.00000
     10       1.7627      1.00000
     11       2.4185      1.00000
     12       2.5540      1.00000
     13       3.0014      1.00000
     14       3.4666      1.00000
     15       4.9177      0.00002
     16       4.9454      0.00000
     17       7.3508      0.00000
     18       7.6173      0.00000
     19       7.7508      0.00000
     20       7.8416      0.00000
     21       8.9812      0.00000
     22       9.3405      0.00000
     23       9.4018      0.00000
     24       9.7566      0.00000
     25       9.8704      0.00000
     26       9.8914      0.00000
     27      10.2923      0.00000
     28      10.6503      0.00000
     29      11.4423      0.00000
     30      11.9665      0.00000
     31      12.3591      0.00000
     32      12.4830      0.00000
     33      12.8752      0.00000
     34      13.0161      0.00000
     35      13.5720      0.00000
     36      14.1713      0.00000
     37      15.0652      0.00000
     38      15.3306      0.00000
     39      15.9605      0.00000
     40      16.2594      0.00000
     41      16.7975      0.00000
     42      16.8241      0.00000
     43      17.1215      0.00000
     44      17.6143      0.00000
     45      18.7094      0.00000
     46      18.9297      0.00000
     47      19.0157      0.00000
     48      19.2498      0.00000
     49      19.6175      0.00000
     50      19.6411      0.00000
     51      19.8347      0.00000
     52      20.2309      0.00000
     53      20.2417      0.00000
     54      20.3574      0.00000
     55      21.0054      0.00000
     56      21.3454      0.00000
     57      21.9715      0.00000
     58      22.0416      0.00000
     59      22.2495      0.00000
     60      22.9150      0.00000
     61      23.1215      0.00000
     62      23.7143      0.00000
     63      23.8317      0.00000
     64      23.9431      0.00000
     65      24.5067      0.00000
     66      24.5539      0.00000
     67      25.2523      0.00000
     68      25.4522      0.00000
     69      25.5512      0.00000
     70      25.9487      0.00000
     71      26.1889      0.00000
     72      26.5230      0.00000
     73      26.9915      0.00000
     74      27.2438      0.00000
     75      27.3387      0.00000
     76      27.3603      0.00000
     77      27.8434      0.00000
     78      28.2496      0.00000
     79      28.5386      0.00000
     80      28.9908      0.00000
     81      29.0968      0.00000
     82      29.5646      0.00000
     83      29.5791      0.00000
     84      30.0960      0.00000
     85      30.7669      0.00000
     86      30.8882      0.00000
     87      31.4585      0.00000
     88      31.7606      0.00000
     89      32.0769      0.00000
     90      32.1656      0.00000
     91      32.4191      0.00000
     92      32.7234      0.00000
     93      32.7278      0.00000
     94      33.3120      0.00000
     95      33.3566      0.00000
     96      33.7388      0.00000
     97      33.8323      0.00000
     98      34.1749      0.00000
     99      34.5048      0.00000
    100      34.6927      0.00000
    101      35.0105      0.00000
    102      35.0539      0.00000
    103      35.5983      0.00000
    104      36.1588      0.00000
    105      36.1731      0.00000
    106      36.2110      0.00000
    107      36.4255      0.00000
    108      36.9248      0.00000
    109      37.1752      0.00000
    110      37.3500      0.00000
    111      37.3867      0.00000
    112      38.0978      0.00000
    113      38.1658      0.00000
    114      38.3457      0.00000
    115      38.7431      0.00000
    116      39.0006      0.00000
    117      39.2503      0.00000
    118      39.4599      0.00000
    119      40.2437      0.00000
    120      40.3992      0.00000
    121      40.5876      0.00000
    122      40.7849      0.00000
    123      41.1859      0.00000
    124      41.5131      0.00000
    125      41.7617      0.00000
    126      41.9452      0.00000
    127      42.1345      0.00000
    128      42.5000      0.00000
    129      42.6583      0.00000
    130      42.9810      0.00000
    131      43.1871      0.00000
    132      43.6529      0.00000
    133      43.8150      0.00000
    134      44.0892      0.00000
    135      44.2410      0.00000
    136      44.6861      0.00000
    137      44.9395      0.00000
    138      45.1849      0.00000
    139      45.3560      0.00000
    140      45.4394      0.00000
    141      45.7649      0.00000
    142      45.9434      0.00000
    143      46.2198      0.00000
    144      46.6678      0.00000

 k-point     6 :       0.5000    0.5000    0.0000
  band No.  band energies     occupation
      1      -5.3068      1.00000
      2      -5.2234      1.00000
      3      -5.2234      1.00000
      4      -3.4211      1.00000
      5      -0.6360      1.00000
      6      -0.6360      1.00000
      7      -0.5766      1.00000
      8       0.6857      1.00000
      9       1.2228      1.00000
     10       1.2228      1.00000
     11       2.6097      1.00000
     12       3.0648      1.00000
     13       3.2419      1.00000
     14       3.2849      1.00000
     15       5.4031      0.00000
     16       5.4031      0.00000
     17       6.9990      0.00000
     18       6.9990      0.00000
     19       8.4439      0.00000
     20       8.4817      0.00000
     21       9.3855      0.00000
     22       9.4698      0.00000
     23       9.7827      0.00000
     24       9.7827      0.00000
     25       9.9885      0.00000
     26      10.2217      0.00000
     27      10.2217      0.00000
     28      10.5527      0.00000
     29      11.0289      0.00000
     30      11.8250      0.00000
     31      11.8250      0.00000
     32      12.6160      0.00000
     33      12.6702      0.00000
     34      12.6702      0.00000
     35      12.7611      0.00000
     36      12.9809      0.00000
     37      14.4969      0.00000
     38      15.4574      0.00000
     39      15.4574      0.00000
     40      15.6237      0.00000
     41      17.3533      0.00000
     42      17.5405      0.00000
     43      17.5405      0.00000
     44      18.1612      0.00000
     45      18.1965      0.00000
     46      18.1965      0.00000
     47      18.4467      0.00000
     48      18.8737      0.00000
     49      19.1194      0.00000
     50      19.1194      0.00000
     51      19.1677      0.00000
     52      20.5812      0.00000
     53      21.3602      0.00000
     54      21.7082      0.00000
     55      21.7082      0.00000
     56      21.8615      0.00000
     57      21.8615      0.00000
     58      21.8867      0.00000
     59      21.9030      0.00000
     60      22.3994      0.00000
     61      23.1099      0.00000
     62      23.2841      0.00000
     63      23.5624      0.00000
     64      23.5624      0.00000
     65      24.4355      0.00000
     66      25.2369      0.00000
     67      26.2805      0.00000
     68      26.2805      0.00000
     69      26.4970      0.00000
     70      26.4970      0.00000
     71      26.7043      0.00000
     72      26.9046      0.00000
     73      26.9046      0.00000
     74      27.4011      0.00000
     75      27.6124      0.00000
     76      27.7166      0.00000
     77      28.8258      0.00000
     78      29.0041      0.00000
     79      29.0041      0.00000
     80      29.5063      0.00000
     81      29.7416      0.00000
     82      29.7416      0.00000
     83      29.7632      0.00000
     84      31.0742      0.00000
     85      31.1013      0.00000
     86      31.1407      0.00000
     87      31.3241      0.00000
     88      31.3241      0.00000
     89      31.4123      0.00000
     90      31.6759      0.00000
     91      31.9883      0.00000
     92      31.9883      0.00000
     93      32.6620      0.00000
     94      32.6620      0.00000
     95      32.7820      0.00000
     96      32.7991      0.00000
     97      32.7991      0.00000
     98      33.4204      0.00000
     99      33.8025      0.00000
    100      34.0138      0.00000
    101      34.1610      0.00000
    102      34.5272      0.00000
    103      35.4363      0.00000
    104      35.5986      0.00000
    105      35.5986      0.00000
    106      36.1678      0.00000
    107      36.5740      0.00000
    108      36.5740      0.00000
    109      37.2075      0.00000
    110      37.2075      0.00000
    111      37.6343      0.00000
    112      38.4643      0.00000
    113      38.9846      0.00000
    114      38.9846      0.00000
    115      39.1056      0.00000
    116      39.9123      0.00000
    117      40.3397      0.00000
    118      40.8016      0.00000
    119      40.8377      0.00000
    120      40.8377      0.00000
    121      40.9127      0.00000
    122      41.3734      0.00000
    123      41.7057      0.00000
    124      41.8855      0.00000
    125      41.8855      0.00000
    126      42.2073      0.00000
    127      42.4089      0.00000
    128      42.6337      0.00000
    129      42.7386      0.00000
    130      42.7386      0.00000
    131      42.7779      0.00000
    132      42.7779      0.00000
    133      42.9166      0.00000
    134      43.0554      0.00000
    135      43.0554      0.00000
    136      43.3713      0.00000
    137      43.6304      0.00000
    138      43.8710      0.00000
    139      43.8710      0.00000
    140      44.3061      0.00000
    141      44.3061      0.00000
    142      44.4800      0.00000
    143      44.9645      0.00000
    144      45.0144      0.00000

 k-point     7 :       0.2500    0.2500    0.2500
  band No.  band energies     occupation
      1      -6.2327      1.00000
      2      -4.5707      1.00000
      3      -4.5707      1.00000
      4      -3.2481      1.00000
      5      -1.4880      1.00000
      6      -1.4880      1.00000
      7       0.1025      1.00000
      8       1.1706      1.00000
      9       1.1706      1.00000
     10       2.2314      1.00000
     11       2.3242      1.00000
     12       3.0756      1.00000
     13       3.0756      1.00000
     14       3.5945      1.00000
     15       5.5255      0.00000
     16       5.5255      0.00000
     17       6.3764      0.00000
     18       6.4587      0.00000
     19       6.4587      0.00000
     20       8.5871      0.00000
     21       8.7233      0.00000
     22       8.7233      0.00000
     23       9.7390      0.00000
     24       9.7390      0.00000
     25       9.9270      0.00000
     26      10.3289      0.00000
     27      10.3289      0.00000
     28      10.4157      0.00000
     29      11.7687      0.00000
     30      11.7687      0.00000
     31      12.5235      0.00000
     32      12.9671      0.00000
     33      12.9671      0.00000
     34      13.9517      0.00000
     35      14.0182      0.00000
     36      15.2283      0.00000
     37      15.3467      0.00000
     38      15.3467      0.00000
     39      15.7952      0.00000
     40      15.9597      0.00000
     41      15.9597      0.00000
     42      16.9740      0.00000
     43      17.3331      0.00000
     44      17.4766      0.00000
     45      17.4766      0.00000
     46      17.7512      0.00000
     47      18.5603      0.00000
     48      18.5603      0.00000
     49      19.4354      0.00000
     50      19.4354      0.00000
     51      19.4762      0.00000
     52      20.2203      0.00000
     53      20.2203      0.00000
     54      22.0342      0.00000
     55      22.0342      0.00000
     56      22.3114      0.00000
     57      22.3696      0.00000
     58      22.7935      0.00000
     59      22.7935      0.00000
     60      23.1591      0.00000
     61      23.2163      0.00000
     62      23.2163      0.00000
     63      23.9783      0.00000
     64      23.9988      0.00000
     65      23.9988      0.00000
     66      24.3959      0.00000
     67      24.6763      0.00000
     68      24.6763      0.00000
     69      24.7343      0.00000
     70      25.9330      0.00000
     71      25.9330      0.00000
     72      26.2947      0.00000
     73      26.5696      0.00000
     74      26.7050      0.00000
     75      26.7050      0.00000
     76      27.7135      0.00000
     77      27.7135      0.00000
     78      28.8522      0.00000
     79      28.9768      0.00000
     80      28.9768      0.00000
     81      29.7215      0.00000
     82      29.8471      0.00000
     83      29.8471      0.00000
     84      29.9646      0.00000
     85      30.3859      0.00000
     86      30.3859      0.00000
     87      31.3599      0.00000
     88      32.2623      0.00000
     89      32.2623      0.00000
     90      32.5090      0.00000
     91      32.9107      0.00000
     92      32.9107      0.00000
     93      33.4083      0.00000
     94      33.5570      0.00000
     95      33.5570      0.00000
     96      33.6535      0.00000
     97      34.1173      0.00000
     98      34.2244      0.00000
     99      34.2244      0.00000
    100      34.5768      0.00000
    101      34.8929      0.00000
    102      34.8929      0.00000
    103      35.7360      0.00000
    104      35.8591      0.00000
    105      35.8591      0.00000
    106      36.1798      0.00000
    107      36.3931      0.00000
    108      36.3931      0.00000
    109      37.0514      0.00000
    110      37.3710      0.00000
    111      37.3710      0.00000
    112      37.8277      0.00000
    113      37.8277      0.00000
    114      38.8859      0.00000
    115      39.2078      0.00000
    116      39.2078      0.00000
    117      39.2845      0.00000
    118      39.8815      0.00000
    119      39.8815      0.00000
    120      40.5560      0.00000
    121      40.5560      0.00000
    122      41.0968      0.00000
    123      41.1569      0.00000
    124      41.1569      0.00000
    125      41.6384      0.00000
    126      41.8678      0.00000
    127      41.8678      0.00000
    128      41.9742      0.00000
    129      42.8260      0.00000
    130      42.8260      0.00000
    131      42.9288      0.00000
    132      43.2976      0.00000
    133      43.3463      0.00000
    134      43.3463      0.00000
    135      43.7868      0.00000
    136      44.7054      0.00000
    137      44.7541      0.00000
    138      44.7541      0.00000
    139      45.2557      0.00000
    140      45.6484      0.00000
    141      45.6484      0.00000
    142      46.7210      0.00000
    143      46.7216      0.00000
    144      46.8417      0.00000

 k-point     8 :       0.5000    0.2500    0.2500
  band No.  band energies     occupation
      1      -5.7476      1.00000
      2      -5.2764      1.00000
      3      -4.4519      1.00000
      4      -3.2387      1.00000
      5      -1.8216      1.00000
      6      -1.1995      1.00000
      7      -0.4352      1.00000
      8       1.1786      1.00000
      9       1.8003      1.00000
     10       2.1309      1.00000
     11       2.5153      1.00000
     12       2.5944      1.00000
     13       3.0173      1.00000
     14       4.4099      1.00000
     15       4.9288      0.00000
     16       5.3234      0.00000
     17       6.9705      0.00000
     18       7.6005      0.00000
     19       7.8988      0.00000
     20       7.9317      0.00000
     21       7.9581      0.00000
     22       8.5246      0.00000
     23       9.5757      0.00000
     24       9.6240      0.00000
     25      10.0122      0.00000
     26      10.1862      0.00000
     27      10.2510      0.00000
     28      10.7800      0.00000
     29      11.7226      0.00000
     30      11.9080      0.00000
     31      12.4067      0.00000
     32      12.7384      0.00000
     33      12.7887      0.00000
     34      13.2092      0.00000
     35      14.2462      0.00000
     36      14.6368      0.00000
     37      14.8948      0.00000
     38      15.0650      0.00000
     39      15.4396      0.00000
     40      15.5359      0.00000
     41      15.9977      0.00000
     42      16.5596      0.00000
[...]
     37      14.2569      0.00000
     38      14.9090      0.00000
     39      14.9090      0.00000
     40      15.3089      0.00000
     41      16.1865      0.00000
     42      16.1938      0.00000
     43      16.1938      0.00000
     44      16.8980      0.00000
     45      18.1279      0.00000
     46      18.1279      0.00000
     47      18.2885      0.00000
     48      18.8014      0.00000
     49      19.0091      0.00000
     50      19.2369      0.00000
     51      19.2369      0.00000
     52      19.4789      0.00000
     53      20.1032      0.00000
     54      21.5576      0.00000
     55      21.5576      0.00000
     56      22.0587      0.00000
     57      22.3243      0.00000
     58      22.5011      0.00000
     59      22.6399      0.00000
     60      22.6399      0.00000
     61      23.7139      0.00000
     62      23.7139      0.00000
     63      23.7634      0.00000
     64      25.0554      0.00000
     65      25.3121      0.00000
     66      25.9181      0.00000
     67      25.9181      0.00000
     68      26.0435      0.00000
     69      26.9709      0.00000
     70      26.9709      0.00000
     71      27.1721      0.00000
     72      27.1859      0.00000
     73      27.3488      0.00000
     74      27.5060      0.00000
     75      27.5060      0.00000
     76      28.5255      0.00000
     77      28.7813      0.00000
     78      28.7813      0.00000
     79      29.2239      0.00000
     80      29.2336      0.00000
     81      29.5060      0.00000
     82      30.3536      0.00000
     83      30.3536      0.00000
     84      30.4036      0.00000
     85      30.5297      0.00000
     86      30.6928      0.00000
     87      30.6928      0.00000
     88      31.4725      0.00000
     89      32.0301      0.00000
     90      32.0301      0.00000
     91      32.1270      0.00000
     92      32.3555      0.00000
     93      32.7461      0.00000
     94      33.0494      0.00000
     95      33.0494      0.00000
     96      33.6292      0.00000
     97      33.6292      0.00000
     98      33.6960      0.00000
     99      33.7322      0.00000
    100      34.1627      0.00000
    101      34.9435      0.00000
    102      35.2278      0.00000
    103      35.2278      0.00000
    104      35.3158      0.00000
    105      35.7205      0.00000
    106      36.1761      0.00000
    107      36.2308      0.00000
    108      36.2308      0.00000
    109      36.8953      0.00000
    110      37.5063      0.00000
    111      37.5063      0.00000
    112      37.5234      0.00000
    113      37.8410      0.00000
    114      38.1926      0.00000
    115      38.1926      0.00000
    116      38.3034      0.00000
    117      39.0697      0.00000
    118      39.2438      0.00000
    119      39.2460      0.00000
    120      39.2460      0.00000
    121      39.6991      0.00000
    122      39.7843      0.00000
    123      39.7843      0.00000
    124      40.7978      0.00000
    125      41.0365      0.00000
    126      41.7207      0.00000
    127      41.7207      0.00000
    128      41.8504      0.00000
    129      42.0772      0.00000
    130      42.8737      0.00000
    131      42.8769      0.00000
    132      43.0392      0.00000
    133      43.0392      0.00000
    134      43.5027      0.00000
    135      44.1599      0.00000
    136      44.1599      0.00000
    137      44.3439      0.00000
    138      45.0556      0.00000
    139      45.0556      0.00000
    140      45.5330      0.00000
    141      45.5863      0.00000
    142      45.7068      0.00000
    143      45.7069      0.00000
    144      46.1922      0.00000

 k-point    10 :       0.5000    0.5000    0.5000
  band No.  band energies     occupation
      1      -4.9949      1.00000
      2      -4.9949      1.00000
      3      -4.9949      1.00000
      4      -3.4755      1.00000
      5      -1.9428      1.00000
      6      -1.9428      1.00000
      7      -1.9428      1.00000
      8       0.7059      1.00000
      9       3.3229      1.00000
     10       3.3229      1.00000
     11       3.3229      1.00000
     12       3.4132      1.00000
     13       3.4132      1.00000
     14       5.9220      0.00000
     15       5.9220      0.00000
     16       5.9220      0.00000
     17       6.2633      0.00000
     18       6.2633      0.00000
     19       6.2633      0.00000
     20       7.8527      0.00000
     21       7.8527      0.00000
     22       7.8527      0.00000
     23       8.7040      0.00000
     24       8.7040      0.00000
     25       9.7394      0.00000
     26       9.7394      0.00000
     27       9.7394      0.00000
     28       9.7664      0.00000
     29      12.5180      0.00000
     30      12.8434      0.00000
     31      12.8434      0.00000
     32      12.8434      0.00000
     33      15.1931      0.00000
     34      15.1931      0.00000
     35      15.1931      0.00000
     36      15.3281      0.00000
     37      15.3281      0.00000
     38      15.6578      0.00000
     39      15.6578      0.00000
     40      15.6578      0.00000
     41      16.2141      0.00000
     42      16.2141      0.00000
     43      16.2141      0.00000
     44      16.6300      0.00000
     45      16.7678      0.00000
     46      16.7678      0.00000
     47      16.7678      0.00000
     48      17.4716      0.00000
     49      17.4716      0.00000
     50      17.4716      0.00000
     51      17.7604      0.00000
     52      17.7604      0.00000
     53      19.0056      0.00000
     54      21.1670      0.00000
     55      21.1670      0.00000
     56      21.1670      0.00000
     57      24.6112      0.00000
     58      24.6888      0.00000
     59      24.6888      0.00000
     60      24.6888      0.00000
     61      25.1352      0.00000
     62      25.1352      0.00000
     63      25.1352      0.00000
     64      25.6809      0.00000
     65      26.2473      0.00000
     66      26.2473      0.00000
     67      26.2473      0.00000
     68      26.3911      0.00000
     69      26.3911      0.00000
     70      26.4345      0.00000
     71      26.4345      0.00000
     72      26.4345      0.00000
     73      26.6895      0.00000
     74      26.6895      0.00000
     75      26.6895      0.00000
     76      28.3162      0.00000
     77      28.3162      0.00000
     78      28.3162      0.00000
     79      29.6217      0.00000
     80      29.6217      0.00000
     81      30.2886      0.00000
     82      31.0683      0.00000
     83      31.0683      0.00000
     84      31.0683      0.00000
     85      31.3530      0.00000
     86      31.3530      0.00000
     87      31.3530      0.00000
     88      31.8255      0.00000
     89      31.8255      0.00000
     90      32.0393      0.00000
     91      32.0393      0.00000
     92      32.0393      0.00000
     93      32.4538      0.00000
     94      32.4538      0.00000
     95      32.4538      0.00000
     96      32.9260      0.00000
     97      32.9260      0.00000
     98      32.9260      0.00000
     99      33.8690      0.00000
    100      33.8690      0.00000
    101      33.8909      0.00000
    102      35.5064      0.00000
    103      36.3922      0.00000
    104      36.3922      0.00000
    105      36.3922      0.00000
    106      36.4732      0.00000
    107      36.4732      0.00000
    108      36.4732      0.00000
    109      36.9529      0.00000
    110      36.9529      0.00000
    111      36.9529      0.00000
    112      37.5040      0.00000
    113      37.5040      0.00000
    114      37.9428      0.00000
    115      37.9428      0.00000
    116      37.9428      0.00000
    117      38.2284      0.00000
    118      38.2284      0.00000
    119      38.2284      0.00000
    120      38.2697      0.00000
    121      39.7311      0.00000
    122      39.7311      0.00000
    123      39.7311      0.00000
    124      40.7562      0.00000
    125      40.7562      0.00000
    126      40.9328      0.00000
    127      41.5394      0.00000
    128      41.7282      0.00000
    129      41.7282      0.00000
    130      41.7282      0.00000
    131      41.8482      0.00000
    132      41.8482      0.00000
    133      41.8482      0.00000
    134      42.4702      0.00000
    135      42.4702      0.00000
    136      42.4702      0.00000
    137      45.4474      0.00000
    138      45.4474      0.00000
    139      45.7259      0.00000
    140      45.7259      0.00000
    141      45.7259      0.00000
    142      47.2268      0.00000
    143      47.2271      0.00000
    144      47.2276      0.00000


--------------------------------------------------------------------------------------------------------


 soft charge-density along one line, spin component           1
         0         1         2         3         4         5         6         7         8         9
 total charge-density along one line

 soft charge-density along one line, spin component           2
         0         1         2         3         4         5         6         7         8         9
 total charge-density along one line

 pseudopotential strength for first ion, spin component:           1
 18.576  25.917  -0.001   0.001   0.001  -0.002   0.002   0.002
 25.917  36.163  -0.002   0.002   0.002  -0.003   0.003   0.003
 -0.001  -0.002   4.197  -0.001  -0.001   7.820  -0.002  -0.002
  0.001   0.002  -0.001   4.197   0.001  -0.002   7.820   0.002
  0.001   0.002  -0.001   0.001   4.197  -0.002   0.002   7.820
 -0.002  -0.003   7.820  -0.002  -0.002  14.583  -0.003  -0.003
  0.002   0.003  -0.002   7.820   0.002  -0.003  14.583   0.003
  0.002   0.003  -0.002   0.002   7.820  -0.003   0.003  14.583
 pseudopotential strength for first ion, spin component:           2
 18.576  25.917  -0.001   0.001   0.001  -0.002   0.002   0.002
 25.917  36.163  -0.002   0.002   0.002  -0.003   0.003   0.003
 -0.001  -0.002   4.197  -0.001  -0.001   7.820  -0.002  -0.002
  0.001   0.002  -0.001   4.197   0.001  -0.002   7.820   0.002
  0.001   0.002  -0.001   0.001   4.197  -0.002   0.002   7.820
 -0.002  -0.003   7.820  -0.002  -0.002  14.583  -0.003  -0.003
  0.002   0.003  -0.002   7.820   0.002  -0.003  14.583   0.003
  0.002   0.003  -0.002   0.002   7.820  -0.003   0.003  14.583
 total augmentation occupancy for first ion, spin component:           1
  4.823  -1.695   0.508  -0.508  -0.508  -0.158   0.158   0.158
 -1.695   0.792  -0.328   0.328   0.328   0.079  -0.079  -0.079
  0.508  -0.328   2.288   0.372   0.372  -0.472  -0.100  -0.100
 -0.508   0.328   0.372   2.288  -0.372  -0.100  -0.472   0.100
 -0.508   0.328   0.372  -0.372   2.288  -0.100   0.100  -0.472
 -0.158   0.079  -0.472  -0.100  -0.100   0.106   0.025   0.025
  0.158  -0.079  -0.100  -0.472   0.100   0.025   0.106  -0.025
  0.158  -0.079  -0.100   0.100  -0.472   0.025  -0.025   0.106
 total augmentation occupancy for first ion, spin component:           2
  0.000  -0.000   0.000  -0.000  -0.000  -0.000   0.000   0.000
 -0.000   0.000  -0.000   0.000   0.000   0.000  -0.000  -0.000
  0.000  -0.000   0.000  -0.000  -0.000  -0.000   0.000   0.000
 -0.000   0.000  -0.000   0.000   0.000   0.000  -0.000  -0.000
 -0.000   0.000  -0.000   0.000   0.000   0.000  -0.000  -0.000
 -0.000   0.000  -0.000   0.000   0.000   0.000   0.000   0.000
  0.000  -0.000   0.000  -0.000  -0.000   0.000   0.000  -0.000
  0.000  -0.000   0.000  -0.000  -0.000   0.000  -0.000   0.000


------------------------ aborting loop because EDIFF is reached ----------------------------------------





 total charge

# of ion       s       p       d       tot
------------------------------------------
    1        0.806   0.808   0.000   1.613
    2        0.759   0.904   0.000   1.663
    3        0.806   0.808   0.000   1.613
    4        0.759   0.904   0.000   1.663
    5        0.806   0.808   0.000   1.613
    6        0.759   0.904   0.000   1.663
    7        0.806   0.808   0.000   1.613
--------------------------------------------------
tot          5.499   5.944   0.000  11.443



 magnetization (x)

# of ion       s       p       d       tot
------------------------------------------
    1        0.000   0.000   0.000   0.000
    2        0.000   0.000   0.000   0.000
    3        0.000   0.000   0.000   0.000
    4        0.000   0.000   0.000   0.000
    5        0.000   0.000   0.000   0.000
    6        0.000   0.000   0.000   0.000
    7        0.000   0.000   0.000   0.000
--------------------------------------------------
tot          0.000   0.000   0.000   0.000

    CHARGE:  cpu time      0.0374: real time      0.0374
    FORLOC:  cpu time      0.0002: real time      0.0002
    FORNL :  cpu time      0.0348: real time      0.0349
    STRESS:  cpu time      0.2404: real time      0.2405
    FORCOR:  cpu time      0.0153: real time      0.0154
    FORHAR:  cpu time      0.0019: real time      0.0019
    MIXING:  cpu time      0.0004: real time      0.0004
    OFIELD:  cpu time      0.0001: real time      0.0001

  FORCE on cell =-STRESS in cart. coord.  units (eV):
  Direction    XX          YY          ZZ          XY          YZ          ZX
  --------------------------------------------------------------------------------------
  Alpha Z    10.25816    10.25816    10.25816
  Ewald    -249.56884  -249.56884  -249.56884     0.00000    -0.00000    -0.00000
  Hartree    22.24955    22.24955    22.24955    -0.00000    -0.00000    -0.00000
  E(xc)     -86.92048   -86.92048   -86.92048    -0.00000     0.00000     0.00000
  Local    -118.58511  -118.58511  -118.58511    -0.00000    -0.00000     0.00000
  n-local   270.84360   271.51852   270.19023    -0.02530    -0.28222    -0.17358
  augment   -41.58039   -41.58039   -41.58039    -0.00000     0.00000     0.00000
  Kinetic   181.36944   188.55627   197.57101     1.51184     0.95078     0.37307
  Fock        0.00000     0.00000     0.00000     0.00000     0.00000     0.00000
  -------------------------------------------------------------------------------------
  Total      -4.13074    -4.13074    -4.13074    -0.00000     0.00000    -0.00000
  in kB     -41.15830   -41.15830   -41.15830    -0.00000     0.00000    -0.00000
  external pressure =      -41.16 kB  Pullay stress =        0.00 kB


 VOLUME and BASIS-vectors are now :
 -----------------------------------------------------------------------------
  energy-cutoff  :      500.00
  volume of cell :      160.80
      direct lattice vectors                 reciprocal lattice vectors
     5.437848350  0.000000000  0.000000000     0.183896265  0.000000000  0.000000000
     0.000000000  5.437848350  0.000000000     0.000000000  0.183896265  0.000000000
     0.000000000  0.000000000  5.437848350     0.000000000  0.000000000  0.183896265

  length of vectors
     5.437848350  5.437848350  5.437848350     0.183896265  0.183896265  0.183896265


 FORCES acting on ions
    electron-ion (+dipol)            ewald-force                    non-local-force                 convergence-correction
 -----------------------------------------------------------------------------------------------
   -.188E+02 0.188E+02 -.188E+02   0.177E+02 -.177E+02 0.177E+02   0.111E+01 -.111E+01 0.111E+01   0.634E-03 -.634E-03 0.634E-03
   -.177E-12 0.223E-14 0.236E-13   0.178E-13 0.355E-14 0.711E-14   -.247E-18 0.263E-17 0.387E-17   0.169E-14 0.176E-15 -.970E-15
   -.188E+02 -.188E+02 0.188E+02   0.177E+02 0.177E+02 -.177E+02   0.111E+01 0.111E+01 -.111E+01   0.634E-03 0.634E-03 -.634E-03
   0.187E-12 0.137E-13 0.119E-13   0.000E+00 0.000E+00 0.000E+00   -.800E-17 -.282E-16 0.500E-17   0.258E-14 -.396E-14 -.963E-15
   0.188E+02 0.188E+02 0.188E+02   -.177E+02 -.177E+02 -.177E+02   -.111E+01 -.111E+01 -.111E+01   -.634E-03 -.634E-03 -.634E-03
   0.153E-12 -.628E-14 -.119E-12   0.355E-14 -.355E-14 0.355E-14   -.124E-16 -.132E-16 -.149E-16   -.405E-14 0.110E-14 -.214E-15
   0.188E+02 -.188E+02 -.188E+02   -.177E+02 0.177E+02 0.177E+02   -.111E+01 0.111E+01 0.111E+01   -.634E-03 0.634E-03 0.634E-03
 -----------------------------------------------------------------------------------------------
   0.384E-08 0.384E-08 -.225E-09   0.711E-14 0.000E+00 0.000E+00   -.222E-15 0.222E-15 0.222E-15   -.670E-14 0.240E-14 -.409E-14


 POSITION                                       TOTAL-FORCE (eV/Angst)
 -----------------------------------------------------------------------------------
      1.37746      4.06039      1.37746         0.042484     -0.042484      0.042484
      0.00000      0.00000      2.71892        -0.000000     -0.000000      0.000000
      1.37746      1.37746      4.06039         0.042484      0.042484     -0.042484
      0.00000      2.71892      0.00000        -0.000000     -0.000000      0.000000
      4.06039      4.06039      4.06039        -0.042484     -0.042484     -0.042484
      2.71892      0.00000      0.00000        -0.000000     -0.000000      0.000000
      4.06039      1.37746      1.37746        -0.042484      0.042484      0.042484
 -----------------------------------------------------------------------------------
    total drift:                                0.000000      0.000000     -0.000000


--------------------------------------------------------------------------------------------------------



  FREE ENERGIE OF THE ION-ELECTRON SYSTEM (eV)
  ---------------------------------------------------
  free  energy   TOTEN  =       -37.02017815 eV

  energy  without entropy=      -37.01360294  energy(sigma->0) =      -37.01689055



--------------------------------------------------------------------------------------------------------


    POTLOK:  cpu time      0.2321: real time      0.2324


--------------------------------------------------------------------------------------------------------


 writing wavefunctions
     LOOP+:  cpu time     65.8088: real time     66.0638
    4ORBIT:  cpu time      0.0000: real time      0.0000



 total charge

# of ion       s       p       d       tot
------------------------------------------
    1        0.806   0.808   0.000   1.613
    2        0.759   0.904   0.000   1.663
    3        0.806   0.808   0.000   1.613
    4        0.759   0.904   0.000   1.663
    5        0.806   0.808   0.000   1.613
    6        0.759   0.904   0.000   1.663
    7        0.806   0.808   0.000   1.613
--------------------------------------------------
tot          5.499   5.944   0.000  11.443



 magnetization (x)

# of ion       s       p       d       tot
------------------------------------------
    1        0.000   0.000   0.000   0.000
    2        0.000   0.000   0.000   0.000
    3        0.000   0.000   0.000   0.000
    4        0.000   0.000   0.000   0.000
    5        0.000   0.000   0.000   0.000
    6        0.000   0.000   0.000   0.000
    7        0.000   0.000   0.000   0.000
--------------------------------------------------
tot          0.000   0.000   0.000   0.000


 total amount of memory used by VASP MPI-rank0    40713. kBytes
=======================================================================

   base      :      30000. kBytes
   nonl-proj :       3140. kBytes
   fftplans  :        508. kBytes
   grid      :       5640. kBytes
   one-center:         43. kBytes
   wavefun   :       1382. kBytes



 General timing and accounting informations for this job:
 ========================================================

                  Total CPU time used (sec):       72.576
                            User time (sec):       69.365
                          System time (sec):        3.210
                         Elapsed time (sec):       74.467

                   Maximum memory used (kb):      154688.
                   Average memory used (kb):          N/A

                          Minor page faults:       132042
                          Major page faults:            0
                 Voluntary context switches:         3850
