<?xml version="1.0" encoding="ISO-8859-1"?>
<modeling>
 <generator>
  <i name="program" type="string">vasp </i>
  <i name="version" type="string">6.3.0  </i>
  <i name="subversion" type="string">20Jan22 (build Feb 02 2022 18:12:33) complex                          parallel </i>
  <i name="platform" type="string">LinuxIFC </i>
  <i name="date" type="string">2022 04 15 </i>
  <i name="time" type="string">08:43:45 </i>
 </generator>
 <incar>
  <i type="string" name="PREC">Accurate</i>
  <i type="string" name="ALGO">Fast</i>
  <i type="int" name="ISPIN">     2</i>
  <i type="int" name="NELM">   200</i>
  <i type="int" name="NELMIN">     6</i>
  <i name="EDIFF">      0.00001000</i>
  <i type="int" name="NSW">     0</i>
  <i name="ENCUT">    500.00000000</i>
  <i name="ENAUG">   1360.00000000</i>
  <v name="MAGMOM">      0.00100000      0.00000000      0.00100000      0.00000000      0.00100000      0.00000000      0.00100000</v>
  <i name="NELECT">     28.00000000</i>
  <i type="logical" name="LREAL"> F  </i>
  <i type="int" name="ISMEAR">     0</i>
  <i name="SIGMA">      0.05000000</i>
  <i type="logical" name="LWAVE"> T  </i>
  <i type="logical" name="LCHARG"> T  </i>
  <i type="logical" name="LVTOT"> T  </i>
  <i type="int" name="LORBIT">    11</i>
  <i type="logical" name="LELF"> F  </i>
  <i type="logical" name="LASPH"> T  </i>
  <i type="logical" name="LAECHG"> F  </i>
  <i type="string" name="GGA">Ps</i>
  <i type="logical" name="LMIXTAU"> T  </i>
 </incar>
 <primitive_cell>
  <structure name="primitive_cell" >
   <crystal>
    <varray name="basis" >
     <v>       5.43784835       0.00000000       0.00000000 </v>
     <v>       0.00000000       5.43784835       0.00000000 </v>
     <v>       0.00000000       0.00000000       5.43784835 </v>
    </varray>
    <i name="volume">    160.79823434 </i>
    <varray name="rec_basis" >
     <v>       0.18389626       0.00000000       0.00000000 </v>
     <v>       0.00000000       0.18389626       0.00000000 </v>
     <v>       0.00000000       0.00000000       0.18389626 </v>
    </varray>
   </crystal>
   <varray name="positions" >
    <v>       0.25330995       0.74669005       0.25330995 </v>
    <v>       0.00000000       0.00000000       0.50000000 </v>
    <v>       0.25330995       0.25330995       0.74669005 </v>
    <v>       0.00000000       0.50000000       0.00000000 </v>
    <v>       0.74669005       0.74669005       0.74669005 </v>
    <v>       0.50000000       0.00000000       0.00000000 </v>
    <v>       0.74669005       0.25330995       0.25330995 </v>
   </varray>
  </structure>
  <varray name="primitive_index" >
   <v type="int" >        1 </v>
   <v type="int" >        2 </v>
   <v type="int" >        3 </v>
   <v type="int" >        4 </v>
   <v type="int" >        5 </v>
   <v type="int" >        6 </v>
   <v type="int" >        7 </v>
  </varray>
 </primitive_cell>
 <kpoints>
  <generation param="Gamma">
   <v type="int" name="divisions">       4        4        4 </v>
   <v name="usershift">      0.00000000       0.00000000       0.00000000 </v>
   <v name="genvec1">      0.25000000       0.00000000       0.00000000 </v>
   <v name="genvec2">      0.00000000       0.25000000       0.00000000 </v>
   <v name="genvec3">      0.00000000       0.00000000       0.25000000 </v>
   <v name="shift">      0.00000000       0.00000000       0.00000000 </v>
  </generation>
  <varray name="kpointlist" >
   <v>       0.00000000       0.00000000       0.00000000 </v>
   <v>       0.25000000       0.00000000       0.00000000 </v>
   <v>       0.50000000       0.00000000       0.00000000 </v>
   <v>       0.25000000       0.25000000       0.00000000 </v>
   <v>       0.50000000       0.25000000       0.00000000 </v>
   <v>       0.50000000       0.50000000       0.00000000 </v>
   <v>       0.25000000       0.25000000       0.25000000 </v>
   <v>       0.50000000       0.25000000       0.25000000 </v>
   <v>       0.50000000       0.50000000       0.25000000 </v>
   <v>       0.50000000       0.50000000       0.50000000 </v>
  </varray>
  <varray name="weights" >
   <v>       0.01562500 </v>
   <v>       0.09375000 </v>
   <v>       0.04687500 </v>
   <v>       0.18750000 </v>
   <v>       0.18750000 </v>
   <v>       0.04687500 </v>
   <v>       0.12500000 </v>
   <v>       0.18750000 </v>
   <v>       0.09375000 </v>
   <v>       0.01562500 </v>
  </varray>
 </kpoints>
 <parameters>
  <separator name="general" >
   <i type="string" name="SYSTEM">unknown system</i>
   <i type="logical" name="LCOMPAT"> F  </i>
  </separator>
  <separator name="electronic" >
   <i type="string" name="PREC">accura</i>
   <i name="ENMAX">    500.00000000</i>
   <i name="ENAUG">   1360.00000000</i>
   <i name="EDIFF">      0.00001000</i>
   <i type="int" name="IALGO">    68</i>
   <i type="int" name="IWAVPR">    10</i>
   <i type="int" name="NBANDS">   144</i>
   <i type="int" name="NBANDSLOW">    -1</i>
   <i type="int" name="NBANDSHIGH">    -1</i>
   <i name="NELECT">     28.00000000</i>
   <i type="int" name="TURBO">     0</i>
   <i type="int" name="IRESTART">     0</i>
   <i type="int" name="NREBOOT">     0</i>
   <i type="int" name="NMIN">     0</i>
   <i name="EREF">      0.00000000</i>
   <separator name="electronic smearing" >
    <i type="int" name="ISMEAR">     0</i>
    <i name="SIGMA">      0.05000000</i>
    <i name="KSPACING">      0.50000000</i>
    <i type="logical" name="KGAMMA"> T  </i>
    <i type="logical" name="KBLOWUP"> T  </i>
   </separator>
   <separator name="electronic projectors" >
    <i type="logical" name="LREAL"> F  </i>
    <v name="ROPT">      0.00000000</v>
    <i type="int" name="LMAXPAW">  -100</i>
    <i type="int" name="LMAXMIX">     2</i>
    <i type="logical" name="NLSPLINE"> F  </i>
   </separator>
   <separator name="electronic startup" >
    <i type="int" name="ISTART">     0</i>
    <i type="int" name="ICHARG">     2</i>
    <i type="int" name="INIWAV">     1</i>
   </separator>
   <separator name="electronic spin" >
    <i type="int" name="ISPIN">     2</i>
    <i type="logical" name="LNONCOLLINEAR"> F  </i>
    <v name="MAGMOM">      0.00100000      0.00000000      0.00100000      0.00000000      0.00100000      0.00000000      0.00100000</v>
    <i name="NUPDOWN">     -1.00000000</i>
    <i type="logical" name="LSORBIT"> F  </i>
    <v name="SAXIS">      0.00000000      0.00000000      1.00000000</v>
    <i type="logical" name="LSPIRAL"> F  </i>
    <v name="QSPIRAL">      0.00000000      0.00000000      0.00000000</v>
    <i type="logical" name="LZEROZ"> F  </i>
   </separator>
   <separator name="electronic exchange-correlation" >
    <i type="logical" name="LASPH"> T  </i>
    <i type="logical" name="LMETAGGA"> F  </i>
   </separator>
   <separator name="electronic convergence" >
    <i type="int" name="NELM">   200</i>
    <i type="int" name="NELMDL">    -5</i>
    <i type="int" name="NELMIN">     6</i>
    <i name="ENINI">    500.00000000</i>
    <separator name="electronic convergence detail" >
     <i type="logical" name="LDIAG"> T  </i>
     <i type="logical" name="LSUBROT"> F  </i>
     <i name="WEIMIN">      0.00000000</i>
     <i name="EBREAK">      0.00000002</i>
     <i name="DEPER">      0.30000000</i>
     <i type="int" name="NRMM">     4</i>
     <i name="TIME">      0.40000000</i>
    </separator>
   </separator>
   <separator name="electronic mixer" >
    <i name="AMIX">      0.40000000</i>
    <i name="BMIX">      1.00000000</i>
    <i name="AMIN">      0.10000000</i>
    <i name="AMIX_MAG">      1.60000000</i>
    <i name="BMIX_MAG">      1.00000000</i>
    <separator name="electronic mixer details" >
     <i type="int" name="IMIX">     4</i>
     <i type="logical" name="MIXFIRST"> F  </i>
     <i type="int" name="MAXMIX">   -45</i>
     <i name="WC">    100.00000000</i>
     <i type="int" name="INIMIX">     1</i>
     <i type="int" name="MIXPRE">     1</i>
     <i type="int" name="MREMOVE">     5</i>
    </separator>
   </separator>
   <separator name="electronic dipolcorrection" >
    <i type="logical" name="LDIPOL"> F  </i>
    <i type="logical" name="LMONO"> F  </i>
    <i type="int" name="IDIPOL">     0</i>
    <i name="EPSILON">      1.00000000</i>
    <v name="DIPOL">   -100.00000000   -100.00000000   -100.00000000</v>
    <i name="EFIELD">      0.00000000</i>
   </separator>
  </separator>
  <separator name="grids" >
   <i type="int" name="NGX">    40</i>
   <i type="int" name="NGY">    40</i>
   <i type="int" name="NGZ">    40</i>
   <i type="int" name="NGXF">    80</i>
   <i type="int" name="NGYF">    80</i>
   <i type="int" name="NGZF">    80</i>
   <i type="logical" name="ADDGRID"> F  </i>
  </separator>
  <separator name="ionic" >
   <i type="int" name="NSW">     0</i>
   <i type="int" name="IBRION">    -1</i>
   <i type="int" name="MDALGO">     0</i>
   <i type="int" name="ISIF">     2</i>
   <i name="PSTRESS">      0.00000000</i>
   <i name="EDIFFG">      0.00010000</i>
   <i type="int" name="NFREE">     0</i>
   <i name="POTIM">      0.50000000</i>
   <i name="SMASS">     -3.00000000</i>
   <i name="SCALEE">      1.00000000</i>
  </separator>
  <separator name="ionic md" >
   <i name="TEBEG">      0.00010000</i>
   <i name="TEEND">      0.00010000</i>
   <i type="int" name="NBLOCK">     1</i>
   <i type="int" name="KBLOCK">     1</i>
   <i type="int" name="NPACO">   256</i>
   <i name="APACO">     10.00000000</i>
  </separator>
  <separator name="symmetry" >
   <i type="int" name="ISYM">     2</i>
   <i name="SYMPREC">      0.00001000</i>
  </separator>
  <separator name="dos" >
   <i type="int" name="LORBIT">    11</i>
   <v name="RWIGS">     -1.00000000</v>
   <i type="int" name="NEDOS">   301</i>
   <i name="EMIN">     10.00000000</i>
   <i name="EMAX">    -10.00000000</i>
   <i name="EFERMI">      0.00000000</i>
  </separator>
  <separator name="writing" >
   <i type="int" name="NWRITE">     2</i>
   <i type="logical" name="LWAVE"> T  </i>
   <i type="logical" name="LDOWNSAMPLE"> F  </i>
   <i type="logical" name="LCHARG"> T  </i>
   <i type="logical" name="LPARD"> F  </i>
   <i type="logical" name="LVTOT"> T  </i>
   <i type="logical" name="LVHAR"> F  </i>
   <i type="logical" name="LELF"> F  </i>
   <i type="logical" name="LOPTICS"> F  </i>
   <v name="STM">      0.00000000      0.00000000      0.00000000      0.00000000      0.00000000      0.00000000      0.00000000</v>
  </separator>
  <separator name="performance" >
   <i type="int" name="NPAR">   144</i>
   <i type="int" name="NSIM">     4</i>
   <i type="int" name="NBLK">    -1</i>
   <i type="logical" name="LPLANE"> T  </i>
   <i type="logical" name="LSCALAPACK"> T  </i>
   <i type="logical" name="LSCAAWARE"> T  </i>
   <i type="logical" name="LSCALU"> F  </i>
   <i type="logical" name="LASYNC"> F  </i>
   <i type="logical" name="LORBITALREAL"> F  </i>
  </separator>
  <separator name="miscellaneous" >
   <i type="int" name="IDIOT">     3</i>
   <i type="int" name="PHON_NSTRUCT">    -1</i>
   <i type="logical" name="LMUSIC"> F  </i>
   <v name="POMASS">     28.08500000</v>
   <v name="DARWINR">      0.00000000</v>
   <v name="DARWINV">      1.00000000</v>
   <i type="logical" name="LCORR"> T  </i>
  </separator>
  <i type="logical" name="GGA_COMPAT"> T  </i>
  <i type="logical" name="LBERRY"> F  </i>
  <i type="int" name="ICORELEVEL">     0</i>
  <i type="logical" name="LDAU"> F  </i>
  <i type="int" name="I_CONSTRAINED_M">     0</i>
  <separator name="electronic exchange-correlation" >
   <i type="string" name="GGA">PS</i>
   <i type="int" name="VOSKOWN">     0</i>
   <i type="logical" name="LHFCALC"> F  </i>
   <i type="string" name="PRECFOCK"></i>
   <i type="logical" name="LSYMGRAD"> F  </i>
   <i type="logical" name="LHFONE"> F  </i>
   <i type="logical" name="LRHFCALC"> F  </i>
   <i type="logical" name="LTHOMAS"> F  </i>
   <i type="logical" name="LMODELHF"> F  </i>
   <i type="logical" name="LFOCKACE"> F  </i>
   <i name="ENCUT4O">     -1.00000000</i>
   <i type="int" name="EXXOEP">     0</i>
   <i type="int" name="FOURORBIT">     0</i>
   <i name="AEXX">      0.00000000</i>
   <i name="HFALPHA">      0.00000000</i>
   <i name="MCALPHA">      0.00000000</i>
   <i name="ALDAX">      1.00000000</i>
   <i name="AGGAX">      1.00000000</i>
   <i name="ALDAC">      1.00000000</i>
   <i name="AGGAC">      1.00000000</i>
   <i type="int" name="NKREDX">     1</i>
   <i type="int" name="NKREDY">     1</i>
   <i type="int" name="NKREDZ">     1</i>
   <i type="logical" name="SHIFTRED"> F  </i>
   <i type="logical" name="ODDONLY"> F  </i>
   <i type="logical" name="EVENONLY"> F  </i>
   <i type="int" name="LMAXFOCK">     0</i>
   <i type="int" name="NMAXFOCKAE">     0</i>
   <i type="logical" name="LFOCKAEDFT"> F  </i>
   <i name="HFSCREEN">      0.00000000</i>
   <i name="HFSCREENC">      0.00000000</i>
   <i type="int" name="NBANDSGWLOW">     0</i>
  </separator>
  <separator name="vdW DFT" >
   <i type="logical" name="LUSE_VDW"> F  </i>
   <i name="Zab_VDW">     -0.84910000</i>
   <i name="PARAM1">      0.12340000</i>
   <i name="PARAM2">      1.00000000</i>
   <i name="PARAM3">      0.00000000</i>
  </separator>
  <separator name="model GW" >
   <i type="int" name="MODEL_GW">     0</i>
   <i name="MODEL_EPS0">     13.78270580</i>
   <i name="MODEL_ALPHA">      1.00000000</i>
  </separator>
  <separator name="linear response parameters" >
   <i type="logical" name="LEPSILON"> F  </i>
   <i type="logical" name="LRPA"> F  </i>
   <i type="logical" name="LNABLA"> F  </i>
   <i type="logical" name="LVEL"> F  </i>
   <i name="CSHIFT">      0.10000000</i>
   <i name="OMEGAMAX">     -1.00000000</i>
   <i name="DEG_THRESHOLD">      0.00200000</i>
   <i name="RTIME">     -0.10000000</i>
   <i name="WPLASMAI">      0.00000000</i>
   <v name="DFIELD">      0.00000000      0.00000000      0.00000000</v>
   <v name="WPLASMA">      0.00000000      0.00000000      0.00000000      0.00000000      0.00000000      0.00000000      0.00000000      0.00000000      0.00000000</v>
  </separator>
  <separator name="orbital magnetization" >
   <i type="logical" name="NUCIND"> F  </i>
   <v name="MAGPOS">      0.00000000      0.00000000      0.00000000</v>
   <i type="logical" name="LNICSALL"> T  </i>
   <i type="logical" name="ORBITALMAG"> F  </i>
   <i type="logical" name="LMAGBLOCH"> F  </i>
   <i type="logical" name="LCHIMAG"> F  </i>
   <i type="logical" name="LGAUGE"> T  </i>
   <i type="int" name="MAGATOM">     0</i>
   <v name="MAGDIPOL">      0.00000000      0.00000000      0.00000000</v>
   <v name="AVECCONST">      0.00000000      0.00000000      0.00000000</v>
  </separator>
  <separator name="response functions" >
   <i type="logical" name="LFINITE_TEMPERATURE"> F  </i>
   <i type="logical" name="LADDER"> F  </i>
   <i type="logical" name="LRPAFORCE"> F  </i>
   <i type="logical" name="LFXC"> F  </i>
   <i type="logical" name="LHARTREE"> T  </i>
   <i type="int" name="IBSE">     0</i>
   <v type="int" name="KPOINT">    -1     0     0     0</v>
   <i type="logical" name="LTCTC"> F  </i>
   <i type="logical" name="LTCTE"> F  </i>
   <i type="logical" name="LTETE"> F  </i>
   <i type="logical" name="LTRIPLET"> F  </i>
   <i type="logical" name="LFXCEPS"> F  </i>
   <i type="logical" name="LFXHEG"> F  </i>
   <i type="int" name="NATURALO">     2</i>
   <i type="logical" name="LHOLEGF"> F  </i>
   <i type="logical" name="L2ORDER"> F  </i>
   <i type="logical" name="LDMP1"> F  </i>
   <i type="logical" name="LMP2LT"> F  </i>
   <i type="logical" name="LSMP2LT"> F  </i>
   <i type="logical" name="LGWLF"> F  </i>
   <i name="ENCUTGW">     -2.00000000</i>
   <i name="ENCUTGWSOFT">     -2.00000000</i>
   <i name="ENCUTLF">     -1.00000000</i>
   <i type="logical" name="LESF_SPLINES"> F  </i>
   <i type="int" name="LMAXMP2">    -1</i>
   <i name="SCISSOR">      0.00000000</i>
   <i type="int" name="NOMEGA">     0</i>
   <i type="int" name="NOMEGAR">     0</i>
   <i type="int" name="NBANDSGW">    -1</i>
   <i type="int" name="NBANDSO">    -1</i>
   <i type="int" name="NBANDSV">    -1</i>
   <i type="int" name="NELMGW">     1</i>
   <i type="int" name="NELMHF">     1</i>
   <i type="int" name="DIM">     3</i>
   <i type="int" name="IESPILON">     4</i>
   <i type="int" name="ANTIRES">     0</i>
   <i name="OMEGAMAX">    -30.00000000</i>
   <i name="OMEGAMIN">    -30.00000000</i>
   <i name="OMEGATL">   -200.00000000</i>
   <i type="int" name="OMEGAGRID">     0</i>
   <i name="CSHIFT">     -0.10000000</i>
   <i type="logical" name="LSELFENERGY"> F  </i>
   <i type="logical" name="LSPECTRAL"> F  </i>
   <i type="logical" name="LSPECTRALGW"> F  </i>
   <i type="logical" name="LSINGLES"> F  </i>
   <i type="logical" name="LFERMIGW"> F  </i>
   <i type="logical" name="ODDONLYGW"> F  </i>
   <i type="logical" name="EVENONLYGW"> F  </i>
   <i type="int" name="NKREDLFX">     1</i>
   <i type="int" name="NKREDLFY">     1</i>
   <i type="int" name="NKREDLFZ">     1</i>
   <i type="int" name="MAXMEM">  2800</i>
   <i type="int" name="TELESCOPE">     0</i>
   <i type="int" name="NTAUPAR">    -1</i>
   <i type="int" name="NOMEGAPAR">    -1</i>
   <i name="DAMP_NEWTON">      0.80000001</i>
   <i name="LAMBDA">      1.00000000</i>
  </separator>
  <separator name="External order field" >
   <i name="OFIELD_KAPPA">      0.00000000</i>
   <v name="OFIELD_K">      0.00000000      0.00000000      0.00000000</v>
   <i name="OFIELD_Q6_NEAR">      0.00000000</i>
   <i name="OFIELD_Q6_FAR">      0.00000000</i>
   <i name="OFIELD_A">      0.00000000</i>
  </separator>
  <separator name="optional k-points parameters" >
   <i type="int" name="KPOINTS_OPT_MODE">     1</i>
   <i type="logical" name="LKPOINTS_OPT"> F  </i>
  </separator>
 </parameters>
 <atominfo>
  <atoms>       7 </atoms>
  <types>       1 </types>
  <array name="atoms" >
   <dimension dim="1">ion</dimension>
   <field type="string">element</field>
   <field type="int">atomtype</field>
   <set>
    <rc><c>Si</c><c>   1</c></rc>
    <rc><c>Si</c><c>   1</c></rc>
    <rc><c>Si</c><c>   1</c></rc>
    <rc><c>Si</c><c>   1</c></rc>
    <rc><c>Si</c><c>   1</c></rc>
    <rc><c>Si</c><c>   1</c></rc>
    <rc><c>Si</c><c>   1</c></rc>
   </set>
  </array>
  <array name="atomtypes" >
   <dimension dim="1">type</dimension>
   <field type="int">atomspertype</field>
   <field type="string">element</field>
   <field>mass</field>
   <field>valence</field>
   <field type="string">pseudopotential</field>
   <set>
    <rc><c>   7</c><c>Si</c><c>     28.08500000</c><c>      4.00000000</c><c>  PAW_PBE Si 05Jan2001                  </c></rc>
   </set>
  </array>
 </atominfo>
 <structure name="initialpos" >
  <crystal>
   <varray name="basis" >
    <v>       5.43784835       0.00000000       0.00000000 </v>
    <v>       0.00000000       5.43784835       0.00000000 </v>
    <v>       0.00000000       0.00000000       5.43784835 </v>
   </varray>
   <i name="volume">    160.79823434 </i>
   <varray name="rec_basis" >
    <v>       0.18389626       0.00000000       0.00000000 </v>
    <v>       0.00000000       0.18389626       0.00000000 </v>
    <v>       0.00000000       0.00000000       0.18389626 </v>
   </varray>
  </crystal>
  <varray name="positions" >
   <v>       0.25330995       0.74669005       0.25330995 </v>
   <v>       0.00000000       0.00000000       0.50000000 </v>
   <v>       0.25330995       0.25330995       0.74669005 </v>
   <v>       0.00000000       0.50000000       0.00000000 </v>
   <v>       0.74669005       0.74669005       0.74669005 </v>
   <v>       0.50000000       0.00000000       0.00000000 </v>
   <v>       0.74669005       0.25330995       0.25330995 </v>
  </varray>
 </structure>
 <calculation>
  <scstep>
   <time name="dav">    5.20    5.20</time>
   <time name="total">    5.43    5.44</time>
   <energy>
    <i name="alphaZ">     10.25815623 </i>
    <i name="ewald">   -748.70534994 </i>
    <i name="hartreedc">    -56.50790335 </i>
    <i name="XCdc">    -62.59124790 </i>
    <i name="pawpsdc">    612.34974622 </i>
    <i name="pawaedc">   -491.33201668 </i>
    <i name="eentropy">     -0.00785321 </i>
    <i name="bandstr">     -0.59605371 </i>
    <i name="atom">    718.02812073 </i>
    <i name="e_fr_energy">    -19.10440161 </i>
    <i name="e_wo_entrp">    -19.09654840 </i>
    <i name="e_0_energy">    -19.10047501 </i>
   </energy>
  </scstep>
  <scstep>
   <time name="dav">   12.38   12.39</time>
   <time name="total">   12.39   12.40</time>
   <energy>
    <i name="e_fr_energy">    -37.75364293 </i>
    <i name="e_wo_entrp">    -37.74297458 </i>
    <i name="e_0_energy">    -37.74830875 </i>
   </energy>
  </scstep>
  <scstep>
   <time name="dav">    5.35    5.37</time>
   <time name="total">    5.35    5.37</time>
   <energy>
    <i name="e_fr_energy">    -37.76864109 </i>
    <i name="e_wo_entrp">    -37.75797221 </i>
    <i name="e_0_energy">    -37.76330665 </i>
   </energy>
  </scstep>
  <scstep>
   <time name="dav">   25.46   25.48</time>
   <time name="total">   25.46   25.48</time>
   <energy>
    <i name="e_fr_energy">    -37.76864873 </i>
    <i name="e_wo_entrp">    -37.75797984 </i>
    <i name="e_0_energy">    -37.76331429 </i>
   </energy>
  </scstep>
  <scstep>
   <time name="dav">    5.67    5.69</time>
   <time name="total">    5.72    5.74</time>
   <energy>
    <i name="e_fr_energy">    -37.76864873 </i>
    <i name="e_wo_entrp">    -37.75797984 </i>
    <i name="e_0_energy">    -37.76331429 </i>
   </energy>
  </scstep>
  <scstep>
   <time name="diag">    0.81    0.81</time>
   <time name="diis">    0.20    0.20</time>
   <time name="orth">    0.11    0.11</time>
   <time name="total">    1.39    1.41</time>
   <energy>
    <i name="e_fr_energy">    -37.19164518 </i>
    <i name="e_wo_entrp">    -37.18430065 </i>
    <i name="e_0_energy">    -37.18797292 </i>
   </energy>
  </scstep>
  <scstep>
   <time name="diag">    0.79    0.79</time>
   <time name="diis">    0.29    0.29</time>
   <time name="orth">    0.11    0.11</time>
   <time name="total">    1.45    1.47</time>
   <energy>
    <i name="e_fr_energy">    -37.02605756 </i>
    <i name="e_wo_entrp">    -37.01949455 </i>
    <i name="e_0_energy">    -37.02277606 </i>
   </energy>
  </scstep>
  <scstep>
   <time name="diag">    0.77    0.77</time>
   <time name="diis">    0.28    0.28</time>
   <time name="orth">    0.11    0.11</time>
   <time name="total">    1.43    1.45</time>
   <energy>
    <i name="e_fr_energy">    -37.02017625 </i>
    <i name="e_wo_entrp">    -37.01363629 </i>
    <i name="e_0_energy">    -37.01690627 </i>
   </energy>
  </scstep>
  <scstep>
   <time name="diag">    0.77    0.77</time>
   <time name="diis">    0.31    0.31</time>
   <time name="orth">    0.11    0.11</time>
   <time name="total">    1.47    1.47</time>
   <energy>
    <i name="e_fr_energy">    -37.02014791 </i>
    <i name="e_wo_entrp">    -37.01358317 </i>
    <i name="e_0_energy">    -37.01686554 </i>
   </energy>
  </scstep>
  <scstep>
   <time name="diag">    0.76    0.76</time>
   <time name="diis">    0.31    0.31</time>
   <time name="orth">    0.11    0.11</time>
   <time name="total">    1.43    1.46</time>
   <energy>
    <i name="e_fr_energy">    -37.02018027 </i>
    <i name="e_wo_entrp">    -37.01360418 </i>
    <i name="e_0_energy">    -37.01689222 </i>
   </energy>
  </scstep>
  <scstep>
   <time name="diag">    0.75    0.75</time>
   <time name="diis">    0.32    0.32</time>
   <time name="orth">    0.11    0.11</time>
   <time name="total">    1.41    1.42</time>
   <energy>
    <i name="alphaZ">     10.25815623 </i>
    <i name="ewald">   -748.70534994 </i>
    <i name="hartreedc">    -66.73713930 </i>
    <i name="XCdc">    -61.04082780 </i>
    <i name="pawpsdc">   2423.10026356 </i>
    <i name="pawaedc">  -2302.60158857 </i>
    <i name="eentropy">     -0.00657520 </i>
    <i name="bandstr">     -9.31523784 </i>
    <i name="atom">    718.02812073 </i>
    <i name="e_fr_energy">    -37.02017815 </i>
    <i name="e_wo_entrp">    -37.01360294 </i>
    <i name="e_0_energy">    -37.01689055 </i>
   </energy>
  </scstep>
  <structure>
   <crystal>
    <varray name="basis" >
     <v>       5.43784835       0.00000000       0.00000000 </v>
     <v>       0.00000000       5.43784835       0.00000000 </v>
     <v>       0.00000000       0.00000000       5.43784835 </v>
    </varray>
    <i name="volume">    160.79823434 </i>
    <varray name="rec_basis" >
     <v>       0.18389626       0.00000000       0.00000000 </v>
     <v>       0.00000000       0.18389626       0.00000000 </v>
     <v>       0.00000000       0.00000000       0.18389626 </v>
    </varray>
   </crystal>
   <varray name="positions" >
    <v>       0.25330995       0.74669005       0.25330995 </v>
    <v>       0.00000000       0.00000000       0.50000000 </v>
    <v>       0.25330995       0.25330995       0.74669005 </v>
    <v>       0.00000000       0.50000000       0.00000000 </v>
    <v>       0.74669005       0.74669005       0.74669005 </v>
    <v>       0.50000000       0.00000000       0.00000000 </v>
    <v>       0.74669005       0.25330995       0.25330995 </v>
   </varray>
  </structure>
  <varray name="forces" >
   <v>       0.04248375      -0.04248375       0.04248375 </v>
   <v>      -0.00000000      -0.00000000       0.00000000 </v>
   <v>       0.04248375       0.04248375      -0.04248375 </v>
   <v>      -0.00000000      -0.00000000       0.00000000 </v>
   <v>      -0.04248375      -0.04248375      -0.04248375 </v>
   <v>      -0.00000000      -0.00000000       0.00000000 </v>
   <v>      -0.04248375       0.04248375       0.04248375 </v>
  </varray>
  <varray name="stress" >
   <v>     -41.15829955       0.00000000      -0.00000000 </v>
   <v>      -0.00000000     -41.15829955      -0.00000000 </v>
   <v>       0.00000000       0.00000000     -41.15829955 </v>
  </varray>
  <energy>
   <i name="e_fr_energy">    -37.02017815 </i>
   <i name="e_wo_entrp">    -37.01360294 </i>
   <i name="e_0_energy">    -37.01689055 </i>
  </energy>
  <time name="totalsc">   65.81   66.06</time>
  <eigenvalues>
   <array>
    <dimension dim="1">band</dimension>
    <dimension dim="2">kpoint</dimension>
    <dimension dim="3">spin</dimension>
    <field>eigene</field>
    <field>occ</field>
    <set>
     <set comment="spin 1">
      <set comment="kpoint 1">
       <r>   -6.9484    1.0000 </r>
       <r>   -3.2770    1.0000 </r>
       <r>   -3.2770    1.0000 </r>
       <r>   -2.9058    1.0000 </r>
       <r>   -2.9058    1.0000 </r>
       <r>   -2.9058    1.0000 </r>
       <r>    1.2517    1.0000 </r>
       <r>    1.6810    1.0000 </r>
       <r>    1.6810    1.0000 </r>
       <r>    1.6810    1.0000 </r>
       <r>    2.9052    1.0000 </r>
       <r>    2.9052    1.0000 </r>
       <r>    2.9052    1.0000 </r>
       <r>    5.5847    0.0000 </r>
       <r>    5.5847    0.0000 </r>
       <r>    5.5847    0.0000 </r>
       <r>    5.5980    0.0000 </r>
       <r>    5.5980    0.0000 </r>
       <r>    6.1479    0.0000 </r>
       <r>    6.1479    0.0000 </r>
       <r>    6.1479    0.0000 </r>
       <r>    6.2456    0.0000 </r>
       <r>    8.5717    0.0000 </r>
       <r>    8.5717    0.0000 </r>
       <r>    8.5717    0.0000 </r>
       <r>   10.1991    0.0000 </r>
       <r>   12.9387    0.0000 </r>
       <r>   12.9387    0.0000 </r>
       <r>   13.1550    0.0000 </r>
       <r>   14.5944    0.0000 </r>
       <r>   14.5944    0.0000 </r>
       <r>   14.5944    0.0000 </r>
       <r>   15.5838    0.0000 </r>
       <r>   15.5838    0.0000 </r>
       <r>   15.5838    0.0000 </r>
       <r>   15.6442    0.0000 </r>
       <r>   15.6442    0.0000 </r>
       <r>   15.6442    0.0000 </r>
       <r>   16.3090    0.0000 </r>
       <r>   16.3090    0.0000 </r>
       <r>   16.3090    0.0000 </r>
       <r>   16.9909    0.0000 </r>
       <r>   17.4357    0.0000 </r>
       <r>   17.4357    0.0000 </r>
       <r>   17.4812    0.0000 </r>
       <r>   17.4812    0.0000 </r>
       <r>   17.4812    0.0000 </r>
       <r>   18.1905    0.0000 </r>
       <r>   18.1905    0.0000 </r>
       <r>   18.1905    0.0000 </r>
       <r>   19.1793    0.0000 </r>
       <r>   19.1817    0.0000 </r>
       <r>   19.1817    0.0000 </r>
       <r>   20.2706    0.0000 </r>
       <r>   20.9541    0.0000 </r>
       <r>   20.9541    0.0000 </r>
       <r>   20.9541    0.0000 </r>
       <r>   23.5510    0.0000 </r>
       <r>   23.6899    0.0000 </r>
       <r>   23.6899    0.0000 </r>
       <r>   23.6899    0.0000 </r>
       <r>   24.4104    0.0000 </r>
       <r>   24.4104    0.0000 </r>
       <r>   24.4104    0.0000 </r>
       <r>   24.8579    0.0000 </r>
       <r>   24.8579    0.0000 </r>
       <r>   24.8579    0.0000 </r>
       <r>   24.9442    0.0000 </r>
       <r>   24.9442    0.0000 </r>
       <r>   24.9442    0.0000 </r>
       <r>   25.3508    0.0000 </r>
       <r>   25.3508    0.0000 </r>
       <r>   26.0998    0.0000 </r>
       <r>   26.0998    0.0000 </r>
       <r>   26.2713    0.0000 </r>
       <r>   26.2713    0.0000 </r>
       <r>   26.2713    0.0000 </r>
       <r>   27.1542    0.0000 </r>
       <r>   27.1542    0.0000 </r>
       <r>   27.1542    0.0000 </r>
       <r>   27.5348    0.0000 </r>
       <r>   28.4177    0.0000 </r>
       <r>   28.4177    0.0000 </r>
       <r>   28.4177    0.0000 </r>
       <r>   29.3562    0.0000 </r>
       <r>   29.3562    0.0000 </r>
       <r>   30.8561    0.0000 </r>
       <r>   31.6578    0.0000 </r>
       <r>   31.6578    0.0000 </r>
       <r>   31.6578    0.0000 </r>
       <r>   32.9466    0.0000 </r>
       <r>   32.9466    0.0000 </r>
       <r>   33.1682    0.0000 </r>
       <r>   33.1682    0.0000 </r>
       <r>   33.1682    0.0000 </r>
       <r>   33.8457    0.0000 </r>
       <r>   33.8457    0.0000 </r>
       <r>   33.8457    0.0000 </r>
       <r>   35.1337    0.0000 </r>
       <r>   35.1337    0.0000 </r>
       <r>   35.1337    0.0000 </r>
       <r>   37.5402    0.0000 </r>
       <r>   37.5402    0.0000 </r>
       <r>   37.5402    0.0000 </r>
       <r>   38.8940    0.0000 </r>
       <r>   38.8940    0.0000 </r>
       <r>   38.8940    0.0000 </r>
       <r>   39.0630    0.0000 </r>
       <r>   39.0630    0.0000 </r>
       <r>   39.0630    0.0000 </r>
       <r>   39.1462    0.0000 </r>
       <r>   39.1462    0.0000 </r>
       <r>   39.3332    0.0000 </r>
       <r>   40.2045    0.0000 </r>
       <r>   40.3706    0.0000 </r>
       <r>   40.3706    0.0000 </r>
       <r>   40.3706    0.0000 </r>
       <r>   40.8725    0.0000 </r>
       <r>   40.8725    0.0000 </r>
       <r>   40.8725    0.0000 </r>
       <r>   41.8991    0.0000 </r>
       <r>   41.8991    0.0000 </r>
       <r>   41.8991    0.0000 </r>
       <r>   42.2099    0.0000 </r>
       <r>   42.2099    0.0000 </r>
       <r>   42.5685    0.0000 </r>
       <r>   42.7993    0.0000 </r>
       <r>   42.9780    0.0000 </r>
       <r>   42.9780    0.0000 </r>
       <r>   43.2085    0.0000 </r>
       <r>   43.2085    0.0000 </r>
       <r>   43.2085    0.0000 </r>
       <r>   44.2528    0.0000 </r>
       <r>   44.2528    0.0000 </r>
       <r>   44.2528    0.0000 </r>
       <r>   44.8096    0.0000 </r>
       <r>   44.8099    0.0000 </r>
       <r>   45.1348    0.0000 </r>
       <r>   45.1348    0.0000 </r>
       <r>   45.1348    0.0000 </r>
       <r>   45.7594    0.0000 </r>
       <r>   45.7594    0.0000 </r>
       <r>   45.7594    0.0000 </r>
       <r>   46.1533    0.0000 </r>
      </set>
      <set comment="kpoint 2">
       <r>   -6.7045    1.0000 </r>
       <r>   -4.6097    1.0000 </r>
       <r>   -3.2066    1.0000 </r>
       <r>   -2.8385    1.0000 </r>
       <r>   -2.8385    1.0000 </r>
       <r>   -1.5248    1.0000 </r>
       <r>    1.1842    1.0000 </r>
       <r>    1.4359    1.0000 </r>
       <r>    1.4359    1.0000 </r>
       <r>    1.5579    1.0000 </r>
       <r>    2.1605    1.0000 </r>
       <r>    2.7095    1.0000 </r>
       <r>    2.7095    1.0000 </r>
       <r>    4.8955    0.0003 </r>
       <r>    5.3222    0.0000 </r>
       <r>    5.3222    0.0000 </r>
       <r>    5.6916    0.0000 </r>
       <r>    6.3750    0.0000 </r>
       <r>    6.7918    0.0000 </r>
       <r>    7.0015    0.0000 </r>
       <r>    7.0015    0.0000 </r>
       <r>    7.4719    0.0000 </r>
       <r>    8.1449    0.0000 </r>
       <r>    9.6104    0.0000 </r>
       <r>    9.6104    0.0000 </r>
       <r>   10.7345    0.0000 </r>
       <r>   11.9686    0.0000 </r>
       <r>   12.4301    0.0000 </r>
       <r>   12.4684    0.0000 </r>
       <r>   12.4684    0.0000 </r>
       <r>   13.2785    0.0000 </r>
       <r>   13.6132    0.0000 </r>
       <r>   14.2705    0.0000 </r>
       <r>   14.3358    0.0000 </r>
       <r>   14.3358    0.0000 </r>
       <r>   15.0600    0.0000 </r>
       <r>   15.9194    0.0000 </r>
       <r>   15.9604    0.0000 </r>
       <r>   15.9604    0.0000 </r>
       <r>   16.7654    0.0000 </r>
       <r>   16.7820    0.0000 </r>
       <r>   16.7820    0.0000 </r>
       <r>   16.9704    0.0000 </r>
       <r>   17.4991    0.0000 </r>
       <r>   17.6845    0.0000 </r>
       <r>   18.3689    0.0000 </r>
       <r>   18.3689    0.0000 </r>
       <r>   18.9897    0.0000 </r>
       <r>   18.9897    0.0000 </r>
       <r>   19.4243    0.0000 </r>
       <r>   19.9097    0.0000 </r>
       <r>   19.9169    0.0000 </r>
       <r>   20.6598    0.0000 </r>
       <r>   21.0737    0.0000 </r>
       <r>   21.4014    0.0000 </r>
       <r>   21.4014    0.0000 </r>
       <r>   21.5984    0.0000 </r>
       <r>   22.0459    0.0000 </r>
       <r>   22.2251    0.0000 </r>
       <r>   22.2251    0.0000 </r>
       <r>   22.9018    0.0000 </r>
       <r>   23.3131    0.0000 </r>
       <r>   23.3131    0.0000 </r>
       <r>   23.4759    0.0000 </r>
       <r>   23.9070    0.0000 </r>
       <r>   24.3110    0.0000 </r>
       <r>   24.3110    0.0000 </r>
       <r>   24.5344    0.0000 </r>
       <r>   24.8737    0.0000 </r>
       <r>   25.7744    0.0000 </r>
       <r>   25.7744    0.0000 </r>
       <r>   26.3290    0.0000 </r>
       <r>   26.8328    0.0000 </r>
       <r>   27.0053    0.0000 </r>
       <r>   27.0053    0.0000 </r>
       <r>   27.5498    0.0000 </r>
       <r>   28.0941    0.0000 </r>
       <r>   28.1886    0.0000 </r>
       <r>   28.3950    0.0000 </r>
       <r>   28.4819    0.0000 </r>
       <r>   28.5945    0.0000 </r>
       <r>   28.5945    0.0000 </r>
       <r>   29.2952    0.0000 </r>
       <r>   29.4651    0.0000 </r>
       <r>   29.4651    0.0000 </r>
       <r>   29.9576    0.0000 </r>
       <r>   30.2154    0.0000 </r>
       <r>   30.7477    0.0000 </r>
       <r>   31.1403    0.0000 </r>
       <r>   31.1403    0.0000 </r>
       <r>   31.4324    0.0000 </r>
       <r>   32.7861    0.0000 </r>
       <r>   32.7861    0.0000 </r>
       <r>   32.8628    0.0000 </r>
       <r>   33.8676    0.0000 </r>
       <r>   34.6618    0.0000 </r>
       <r>   34.6618    0.0000 </r>
       <r>   34.7498    0.0000 </r>
       <r>   35.1744    0.0000 </r>
       <r>   36.1001    0.0000 </r>
       <r>   36.1001    0.0000 </r>
       <r>   36.3704    0.0000 </r>
       <r>   36.3704    0.0000 </r>
       <r>   36.7469    0.0000 </r>
       <r>   36.8571    0.0000 </r>
       <r>   36.9784    0.0000 </r>
       <r>   37.5323    0.0000 </r>
       <r>   37.5323    0.0000 </r>
       <r>   37.5716    0.0000 </r>
       <r>   38.2259    0.0000 </r>
       <r>   38.2259    0.0000 </r>
       <r>   38.3265    0.0000 </r>
       <r>   38.6388    0.0000 </r>
       <r>   39.8009    0.0000 </r>
       <r>   39.8009    0.0000 </r>
       <r>   39.9519    0.0000 </r>
       <r>   40.4431    0.0000 </r>
       <r>   40.5306    0.0000 </r>
       <r>   40.5306    0.0000 </r>
       <r>   40.7185    0.0000 </r>
       <r>   40.9129    0.0000 </r>
       <r>   41.3798    0.0000 </r>
       <r>   41.9236    0.0000 </r>
       <r>   42.0408    0.0000 </r>
       <r>   42.3672    0.0000 </r>
       <r>   42.3672    0.0000 </r>
       <r>   42.7911    0.0000 </r>
       <r>   43.3371    0.0000 </r>
       <r>   43.3371    0.0000 </r>
       <r>   43.3765    0.0000 </r>
       <r>   44.1591    0.0000 </r>
       <r>   44.1686    0.0000 </r>
       <r>   44.4697    0.0000 </r>
       <r>   44.7052    0.0000 </r>
       <r>   44.7052    0.0000 </r>
       <r>   44.8685    0.0000 </r>
       <r>   45.0453    0.0000 </r>
       <r>   45.0453    0.0000 </r>
       <r>   45.2112    0.0000 </r>
       <r>   45.3365    0.0000 </r>
       <r>   45.6138    0.0000 </r>
       <r>   45.6138    0.0000 </r>
       <r>   45.9975    0.0000 </r>
       <r>   45.9979    0.0000 </r>
      </set>
      <set comment="kpoint 3">
       <r>   -6.2124    1.0000 </r>
       <r>   -5.5461    1.0000 </r>
       <r>   -3.1299    1.0000 </r>
       <r>   -2.7656    1.0000 </r>
       <r>   -2.7656    1.0000 </r>
       <r>   -0.5659    1.0000 </r>
       <r>    0.7875    1.0000 </r>
       <r>    0.9136    1.0000 </r>
       <r>    1.1414    1.0000 </r>
       <r>    1.1414    1.0000 </r>
       <r>    2.7366    1.0000 </r>
       <r>    2.7366    1.0000 </r>
       <r>    2.9327    1.0000 </r>
       <r>    3.5073    1.0000 </r>
       <r>    4.8348    0.0391 </r>
       <r>    4.8348    0.0391 </r>
       <r>    6.1288    0.0000 </r>
       <r>    6.4165    0.0000 </r>
       <r>    8.1617    0.0000 </r>
       <r>    8.8338    0.0000 </r>
       <r>    9.1630    0.0000 </r>
       <r>    9.1630    0.0000 </r>
       <r>    9.1725    0.0000 </r>
       <r>    9.5566    0.0000 </r>
       <r>    9.8003    0.0000 </r>
       <r>    9.8003    0.0000 </r>
       <r>   10.4971    0.0000 </r>
       <r>   10.6544    0.0000 </r>
       <r>   11.0500    0.0000 </r>
       <r>   11.0500    0.0000 </r>
       <r>   12.8677    0.0000 </r>
       <r>   12.8677    0.0000 </r>
       <r>   13.6242    0.0000 </r>
       <r>   13.7382    0.0000 </r>
       <r>   14.8571    0.0000 </r>
       <r>   14.9352    0.0000 </r>
       <r>   15.1363    0.0000 </r>
       <r>   15.9540    0.0000 </r>
       <r>   15.9540    0.0000 </r>
       <r>   16.2795    0.0000 </r>
       <r>   16.6051    0.0000 </r>
       <r>   17.5224    0.0000 </r>
       <r>   17.5708    0.0000 </r>
       <r>   17.5708    0.0000 </r>
       <r>   18.1802    0.0000 </r>
       <r>   18.3702    0.0000 </r>
       <r>   18.5295    0.0000 </r>
       <r>   18.5295    0.0000 </r>
       <r>   19.2507    0.0000 </r>
       <r>   19.4312    0.0000 </r>
       <r>   19.4312    0.0000 </r>
       <r>   20.3970    0.0000 </r>
       <r>   21.3587    0.0000 </r>
       <r>   21.3587    0.0000 </r>
       <r>   21.3620    0.0000 </r>
       <r>   21.6192    0.0000 </r>
       <r>   22.5534    0.0000 </r>
       <r>   22.5534    0.0000 </r>
       <r>   22.5940    0.0000 </r>
       <r>   22.5940    0.0000 </r>
       <r>   23.0749    0.0000 </r>
       <r>   23.0983    0.0000 </r>
       <r>   23.4890    0.0000 </r>
       <r>   23.4890    0.0000 </r>
       <r>   23.5357    0.0000 </r>
       <r>   23.9593    0.0000 </r>
       <r>   24.1514    0.0000 </r>
       <r>   24.3296    0.0000 </r>
       <r>   24.8173    0.0000 </r>
       <r>   25.6764    0.0000 </r>
       <r>   26.1335    0.0000 </r>
       <r>   26.1335    0.0000 </r>
       <r>   26.4508    0.0000 </r>
       <r>   26.6985    0.0000 </r>
       <r>   26.6985    0.0000 </r>
       <r>   26.8325    0.0000 </r>
       <r>   27.0267    0.0000 </r>
       <r>   27.6011    0.0000 </r>
       <r>   28.9111    0.0000 </r>
       <r>   29.5397    0.0000 </r>
       <r>   29.7498    0.0000 </r>
       <r>   29.7498    0.0000 </r>
       <r>   30.0193    0.0000 </r>
       <r>   31.3661    0.0000 </r>
       <r>   31.7535    0.0000 </r>
       <r>   31.7535    0.0000 </r>
       <r>   31.8293    0.0000 </r>
       <r>   32.0061    0.0000 </r>
       <r>   32.0922    0.0000 </r>
       <r>   32.3677    0.0000 </r>
       <r>   32.3677    0.0000 </r>
       <r>   32.4069    0.0000 </r>
       <r>   32.5015    0.0000 </r>
       <r>   32.5015    0.0000 </r>
       <r>   33.5857    0.0000 </r>
       <r>   33.9068    0.0000 </r>
       <r>   33.9068    0.0000 </r>
       <r>   34.1065    0.0000 </r>
       <r>   34.2566    0.0000 </r>
       <r>   34.5062    0.0000 </r>
       <r>   34.7905    0.0000 </r>
       <r>   34.7905    0.0000 </r>
       <r>   34.8134    0.0000 </r>
       <r>   35.3259    0.0000 </r>
       <r>   35.3259    0.0000 </r>
       <r>   35.8333    0.0000 </r>
       <r>   35.9702    0.0000 </r>
       <r>   35.9702    0.0000 </r>
       <r>   36.5252    0.0000 </r>
       <r>   37.8768    0.0000 </r>
       <r>   38.4587    0.0000 </r>
       <r>   38.5729    0.0000 </r>
       <r>   38.5729    0.0000 </r>
       <r>   39.7824    0.0000 </r>
       <r>   39.9139    0.0000 </r>
       <r>   40.0409    0.0000 </r>
       <r>   40.4211    0.0000 </r>
       <r>   40.4211    0.0000 </r>
       <r>   40.4682    0.0000 </r>
       <r>   41.4082    0.0000 </r>
       <r>   41.6402    0.0000 </r>
       <r>   41.6568    0.0000 </r>
       <r>   41.6568    0.0000 </r>
       <r>   41.8461    0.0000 </r>
       <r>   41.8461    0.0000 </r>
       <r>   42.3978    0.0000 </r>
       <r>   42.4629    0.0000 </r>
       <r>   42.4629    0.0000 </r>
       <r>   42.4812    0.0000 </r>
       <r>   42.6628    0.0000 </r>
       <r>   43.1742    0.0000 </r>
       <r>   43.1742    0.0000 </r>
       <r>   44.6064    0.0000 </r>
       <r>   44.8292    0.0000 </r>
       <r>   44.8292    0.0000 </r>
       <r>   44.8895    0.0000 </r>
       <r>   45.1679    0.0000 </r>
       <r>   45.3372    0.0000 </r>
       <r>   45.3373    0.0000 </r>
       <r>   45.3994    0.0000 </r>
       <r>   45.4914    0.0000 </r>
       <r>   45.9213    0.0000 </r>
       <r>   46.4501    0.0000 </r>
       <r>   46.6458    0.0000 </r>
      </set>
      <set comment="kpoint 4">
       <r>   -6.4647    1.0000 </r>
       <r>   -4.6731    1.0000 </r>
       <r>   -4.1902    1.0000 </r>
       <r>   -2.9249    1.0000 </r>
       <r>   -2.0133    1.0000 </r>
       <r>   -1.1500    1.0000 </r>
       <r>    0.4908    1.0000 </r>
       <r>    1.3124    1.0000 </r>
       <r>    1.4474    1.0000 </r>
       <r>    1.8457    1.0000 </r>
       <r>    1.8484    1.0000 </r>
       <r>    2.8075    1.0000 </r>
       <r>    2.9228    1.0000 </r>
       <r>    3.9725    1.0000 </r>
       <r>    4.7515    0.7249 </r>
       <r>    5.7726    0.0000 </r>
       <r>    6.1887    0.0000 </r>
       <r>    6.7805    0.0000 </r>
       <r>    7.1777    0.0000 </r>
       <r>    7.4583    0.0000 </r>
       <r>    7.5741    0.0000 </r>
       <r>    9.0323    0.0000 </r>
       <r>    9.1469    0.0000 </r>
       <r>    9.3021    0.0000 </r>
       <r>    9.4739    0.0000 </r>
       <r>   10.3093    0.0000 </r>
       <r>   11.4976    0.0000 </r>
       <r>   11.5188    0.0000 </r>
       <r>   12.0002    0.0000 </r>
       <r>   12.3920    0.0000 </r>
       <r>   12.6230    0.0000 </r>
       <r>   13.1897    0.0000 </r>
       <r>   13.2937    0.0000 </r>
       <r>   14.0036    0.0000 </r>
       <r>   14.1690    0.0000 </r>
       <r>   14.7772    0.0000 </r>
       <r>   15.0261    0.0000 </r>
       <r>   15.5422    0.0000 </r>
       <r>   15.7922    0.0000 </r>
       <r>   16.1296    0.0000 </r>
       <r>   16.3574    0.0000 </r>
       <r>   16.6983    0.0000 </r>
       <r>   17.4833    0.0000 </r>
       <r>   18.1454    0.0000 </r>
       <r>   18.5629    0.0000 </r>
       <r>   18.6437    0.0000 </r>
       <r>   18.9541    0.0000 </r>
       <r>   19.2153    0.0000 </r>
       <r>   19.4963    0.0000 </r>
       <r>   19.5419    0.0000 </r>
       <r>   19.7450    0.0000 </r>
       <r>   19.9033    0.0000 </r>
       <r>   20.3473    0.0000 </r>
       <r>   20.6997    0.0000 </r>
       <r>   21.1708    0.0000 </r>
       <r>   21.2444    0.0000 </r>
       <r>   21.4157    0.0000 </r>
       <r>   22.3146    0.0000 </r>
       <r>   22.3493    0.0000 </r>
       <r>   22.6767    0.0000 </r>
       <r>   22.9352    0.0000 </r>
       <r>   23.0257    0.0000 </r>
       <r>   23.2708    0.0000 </r>
       <r>   23.8373    0.0000 </r>
       <r>   24.4323    0.0000 </r>
       <r>   24.6919    0.0000 </r>
       <r>   24.9048    0.0000 </r>
       <r>   25.0660    0.0000 </r>
       <r>   25.9387    0.0000 </r>
       <r>   26.0321    0.0000 </r>
       <r>   26.2653    0.0000 </r>
       <r>   26.3631    0.0000 </r>
       <r>   26.4146    0.0000 </r>
       <r>   26.9772    0.0000 </r>
       <r>   27.0815    0.0000 </r>
       <r>   27.2060    0.0000 </r>
       <r>   27.4079    0.0000 </r>
       <r>   27.7824    0.0000 </r>
       <r>   28.3072    0.0000 </r>
       <r>   28.5445    0.0000 </r>
       <r>   28.6642    0.0000 </r>
       <r>   29.0628    0.0000 </r>
       <r>   29.3040    0.0000 </r>
       <r>   29.9191    0.0000 </r>
       <r>   30.2844    0.0000 </r>
       <r>   30.5290    0.0000 </r>
       <r>   30.8931    0.0000 </r>
       <r>   31.0420    0.0000 </r>
       <r>   31.9609    0.0000 </r>
       <r>   32.2142    0.0000 </r>
       <r>   32.5325    0.0000 </r>
       <r>   32.8015    0.0000 </r>
       <r>   32.9733    0.0000 </r>
       <r>   33.2376    0.0000 </r>
       <r>   33.3622    0.0000 </r>
       <r>   33.5955    0.0000 </r>
       <r>   34.2469    0.0000 </r>
       <r>   34.5404    0.0000 </r>
       <r>   34.6695    0.0000 </r>
       <r>   35.0970    0.0000 </r>
       <r>   35.5244    0.0000 </r>
       <r>   35.5906    0.0000 </r>
       <r>   36.0647    0.0000 </r>
       <r>   36.3383    0.0000 </r>
       <r>   36.9759    0.0000 </r>
       <r>   37.0485    0.0000 </r>
       <r>   37.3202    0.0000 </r>
       <r>   37.6057    0.0000 </r>
       <r>   37.7678    0.0000 </r>
       <r>   37.7890    0.0000 </r>
       <r>   37.9202    0.0000 </r>
       <r>   38.2877    0.0000 </r>
       <r>   38.4990    0.0000 </r>
       <r>   38.7620    0.0000 </r>
       <r>   38.9392    0.0000 </r>
       <r>   39.1982    0.0000 </r>
       <r>   39.4771    0.0000 </r>
       <r>   39.5302    0.0000 </r>
       <r>   40.0568    0.0000 </r>
       <r>   40.1031    0.0000 </r>
       <r>   40.4822    0.0000 </r>
       <r>   40.9119    0.0000 </r>
       <r>   41.4422    0.0000 </r>
       <r>   42.0569    0.0000 </r>
       <r>   42.0570    0.0000 </r>
       <r>   42.2886    0.0000 </r>
       <r>   42.4540    0.0000 </r>
       <r>   42.9896    0.0000 </r>
       <r>   43.0912    0.0000 </r>
       <r>   43.2509    0.0000 </r>
       <r>   43.3555    0.0000 </r>
       <r>   43.4325    0.0000 </r>
       <r>   44.1453    0.0000 </r>
       <r>   44.2814    0.0000 </r>
       <r>   44.6144    0.0000 </r>
       <r>   44.7615    0.0000 </r>
       <r>   44.8301    0.0000 </r>
       <r>   44.9633    0.0000 </r>
       <r>   45.2660    0.0000 </r>
       <r>   45.7679    0.0000 </r>
       <r>   45.8203    0.0000 </r>
       <r>   46.1039    0.0000 </r>
       <r>   46.2968    0.0000 </r>
       <r>   46.5507    0.0000 </r>
      </set>
      <set comment="kpoint 5">
       <r>   -5.9695    1.0000 </r>
       <r>   -5.4047    1.0000 </r>
       <r>   -4.1992    1.0000 </r>
       <r>   -3.0687    1.0000 </r>
       <r>   -1.7414    1.0000 </r>
       <r>   -0.6759    1.0000 </r>
       <r>    0.3495    1.0000 </r>
       <r>    0.5886    1.0000 </r>
       <r>    1.4133    1.0000 </r>
       <r>    1.7627    1.0000 </r>
       <r>    2.4185    1.0000 </r>
       <r>    2.5540    1.0000 </r>
       <r>    3.0014    1.0000 </r>
       <r>    3.4666    1.0000 </r>
       <r>    4.9177    0.0000 </r>
       <r>    4.9454    0.0000 </r>
       <r>    7.3508    0.0000 </r>
       <r>    7.6173    0.0000 </r>
       <r>    7.7508    0.0000 </r>
       <r>    7.8416    0.0000 </r>
       <r>    8.9812    0.0000 </r>
       <r>    9.3405    0.0000 </r>
       <r>    9.4018    0.0000 </r>
       <r>    9.7566    0.0000 </r>
       <r>    9.8704    0.0000 </r>
       <r>    9.8914    0.0000 </r>
       <r>   10.2923    0.0000 </r>
       <r>   10.6503    0.0000 </r>
       <r>   11.4423    0.0000 </r>
       <r>   11.9665    0.0000 </r>
       <r>   12.3591    0.0000 </r>
       <r>   12.4830    0.0000 </r>
       <r>   12.8752    0.0000 </r>
       <r>   13.0161    0.0000 </r>
       <r>   13.5720    0.0000 </r>
       <r>   14.1713    0.0000 </r>
       <r>   15.0652    0.0000 </r>
       <r>   15.3306    0.0000 </r>
       <r>   15.9605    0.0000 </r>
       <r>   16.2594    0.0000 </r>
       <r>   16.7975    0.0000 </r>
       <r>   16.8241    0.0000 </r>
       <r>   17.1215    0.0000 </r>
       <r>   17.6143    0.0000 </r>
       <r>   18.7094    0.0000 </r>
       <r>   18.9297    0.0000 </r>
       <r>   19.0157    0.0000 </r>
       <r>   19.2498    0.0000 </r>
       <r>   19.6175    0.0000 </r>
       <r>   19.6411    0.0000 </r>
       <r>   19.8347    0.0000 </r>
       <r>   20.2309    0.0000 </r>
       <r>   20.2417    0.0000 </r>
       <r>   20.3574    0.0000 </r>
       <r>   21.0054    0.0000 </r>
       <r>   21.3454    0.0000 </r>
       <r>   21.9715    0.0000 </r>
       <r>   22.0416    0.0000 </r>
       <r>   22.2495    0.0000 </r>
       <r>   22.9150    0.0000 </r>
       <r>   23.1215    0.0000 </r>
       <r>   23.7143    0.0000 </r>
       <r>   23.8317    0.0000 </r>
       <r>   23.9431    0.0000 </r>
       <r>   24.5067    0.0000 </r>
       <r>   24.5539    0.0000 </r>
       <r>   25.2523    0.0000 </r>
       <r>   25.4522    0.0000 </r>
       <r>   25.5512    0.0000 </r>
       <r>   25.9487    0.0000 </r>
       <r>   26.1889    0.0000 </r>
       <r>   26.5230    0.0000 </r>
       <r>   26.9915    0.0000 </r>
       <r>   27.2438    0.0000 </r>
       <r>   27.3387    0.0000 </r>
       <r>   27.3603    0.0000 </r>
       <r>   27.8434    0.0000 </r>
       <r>   28.2496    0.0000 </r>
       <r>   28.5386    0.0000 </r>
       <r>   28.9908    0.0000 </r>
       <r>   29.0968    0.0000 </r>
       <r>   29.5646    0.0000 </r>
       <r>   29.5791    0.0000 </r>
       <r>   30.0960    0.0000 </r>
       <r>   30.7669    0.0000 </r>
       <r>   30.8882    0.0000 </r>
       <r>   31.4585    0.0000 </r>
       <r>   31.7606    0.0000 </r>
       <r>   32.0769    0.0000 </r>
       <r>   32.1656    0.0000 </r>
       <r>   32.4191    0.0000 </r>
       <r>   32.7234    0.0000 </r>
       <r>   32.7278    0.0000 </r>
       <r>   33.3120    0.0000 </r>
       <r>   33.3566    0.0000 </r>
       <r>   33.7388    0.0000 </r>
       <r>   33.8323    0.0000 </r>
       <r>   34.1749    0.0000 </r>
       <r>   34.5048    0.0000 </r>
       <r>   34.6927    0.0000 </r>
       <r>   35.0105    0.0000 </r>
       <r>   35.0539    0.0000 </r>
       <r>   35.5983    0.0000 </r>
       <r>   36.1588    0.0000 </r>
       <r>   36.1731    0.0000 </r>
       <r>   36.2110    0.0000 </r>
       <r>   36.4255    0.0000 </r>
       <r>   36.9248    0.0000 </r>
       <r>   37.1752    0.0000 </r>
       <r>   37.3500    0.0000 </r>
       <r>   37.3867    0.0000 </r>
       <r>   38.0978    0.0000 </r>
       <r>   38.1658    0.0000 </r>
       <r>   38.3457    0.0000 </r>
       <r>   38.7431    0.0000 </r>
       <r>   39.0006    0.0000 </r>
       <r>   39.2503    0.0000 </r>
       <r>   39.4599    0.0000 </r>
       <r>   40.2437    0.0000 </r>
       <r>   40.3992    0.0000 </r>
       <r>   40.5876    0.0000 </r>
       <r>   40.7849    0.0000 </r>
       <r>   41.1859    0.0000 </r>
       <r>   41.5131    0.0000 </r>
       <r>   41.7617    0.0000 </r>
       <r>   41.9452    0.0000 </r>
       <r>   42.1345    0.0000 </r>
       <r>   42.5000    0.0000 </r>
       <r>   42.6583    0.0000 </r>
       <r>   42.9810    0.0000 </r>
       <r>   43.1871    0.0000 </r>
       <r>   43.6529    0.0000 </r>
       <r>   43.8150    0.0000 </r>
       <r>   44.0892    0.0000 </r>
       <r>   44.2410    0.0000 </r>
       <r>   44.6861    0.0000 </r>
       <r>   44.9395    0.0000 </r>
       <r>   45.1849    0.0000 </r>
       <r>   45.3560    0.0000 </r>
       <r>   45.4394    0.0000 </r>
       <r>   45.7649    0.0000 </r>
       <r>   45.9434    0.0000 </r>
       <r>   46.2198    0.0000 </r>
       <r>   46.6678    0.0000 </r>
      </set>
      <set comment="kpoint 6">
       <r>   -5.3068    1.0000 </r>
       <r>   -5.2234    1.0000 </r>
       <r>   -5.2234    1.0000 </r>
       <r>   -3.4211    1.0000 </r>
       <r>   -0.6360    1.0000 </r>
       <r>   -0.6360    1.0000 </r>
       <r>   -0.5766    1.0000 </r>
       <r>    0.6857    1.0000 </r>
       <r>    1.2228    1.0000 </r>
       <r>    1.2228    1.0000 </r>
       <r>    2.6097    1.0000 </r>
       <r>    3.0648    1.0000 </r>
       <r>    3.2419    1.0000 </r>
       <r>    3.2849    1.0000 </r>
       <r>    5.4031    0.0000 </r>
       <r>    5.4031    0.0000 </r>
       <r>    6.9990    0.0000 </r>
       <r>    6.9990    0.0000 </r>
       <r>    8.4439    0.0000 </r>
       <r>    8.4817    0.0000 </r>
       <r>    9.3855    0.0000 </r>
       <r>    9.4698    0.0000 </r>
       <r>    9.7827    0.0000 </r>
       <r>    9.7827    0.0000 </r>
       <r>    9.9885    0.0000 </r>
       <r>   10.2217    0.0000 </r>
       <r>   10.2217    0.0000 </r>
       <r>   10.5527    0.0000 </r>
       <r>   11.0289    0.0000 </r>
       <r>   11.8250    0.0000 </r>
       <r>   11.8250    0.0000 </r>
       <r>   12.6160    0.0000 </r>
       <r>   12.6702    0.0000 </r>
       <r>   12.6702    0.0000 </r>
       <r>   12.7611    0.0000 </r>
       <r>   12.9809    0.0000 </r>
       <r>   14.4969    0.0000 </r>
       <r>   15.4574    0.0000 </r>
       <r>   15.4574    0.0000 </r>
       <r>   15.6237    0.0000 </r>
       <r>   17.3533    0.0000 </r>
       <r>   17.5405    0.0000 </r>
       <r>   17.5405    0.0000 </r>
       <r>   18.1612    0.0000 </r>
       <r>   18.1965    0.0000 </r>
       <r>   18.1965    0.0000 </r>
       <r>   18.4467    0.0000 </r>
       <r>   18.8737    0.0000 </r>
       <r>   19.1194    0.0000 </r>
       <r>   19.1194    0.0000 </r>
       <r>   19.1677    0.0000 </r>
       <r>   20.5812    0.0000 </r>
       <r>   21.3602    0.0000 </r>
       <r>   21.7082    0.0000 </r>
       <r>   21.7082    0.0000 </r>
       <r>   21.8615    0.0000 </r>
       <r>   21.8615    0.0000 </r>
       <r>   21.8867    0.0000 </r>
       <r>   21.9030    0.0000 </r>
       <r>   22.3994    0.0000 </r>
       <r>   23.1099    0.0000 </r>
       <r>   23.2841    0.0000 </r>
       <r>   23.5624    0.0000 </r>
       <r>   23.5624    0.0000 </r>
       <r>   24.4355    0.0000 </r>
       <r>   25.2369    0.0000 </r>
       <r>   26.2805    0.0000 </r>
       <r>   26.2805    0.0000 </r>
       <r>   26.4970    0.0000 </r>
       <r>   26.4970    0.0000 </r>
       <r>   26.7043    0.0000 </r>
       <r>   26.9046    0.0000 </r>
       <r>   26.9046    0.0000 </r>
       <r>   27.4011    0.0000 </r>
       <r>   27.6124    0.0000 </r>
       <r>   27.7166    0.0000 </r>
       <r>   28.8258    0.0000 </r>
       <r>   29.0041    0.0000 </r>
       <r>   29.0041    0.0000 </r>
       <r>   29.5063    0.0000 </r>
       <r>   29.7416    0.0000 </r>
       <r>   29.7416    0.0000 </r>
       <r>   29.7632    0.0000 </r>
       <r>   31.0742    0.0000 </r>
       <r>   31.1013    0.0000 </r>
       <r>   31.1407    0.0000 </r>
       <r>   31.3241    0.0000 </r>
       <r>   31.3241    0.0000 </r>
       <r>   31.4123    0.0000 </r>
       <r>   31.6759    0.0000 </r>
       <r>   31.9883    0.0000 </r>
       <r>   31.9883    0.0000 </r>
       <r>   32.6620    0.0000 </r>
       <r>   32.6620    0.0000 </r>
       <r>   32.7820    0.0000 </r>
       <r>   32.7991    0.0000 </r>
       <r>   32.7991    0.0000 </r>
       <r>   33.4204    0.0000 </r>
       <r>   33.8025    0.0000 </r>
       <r>   34.0138    0.0000 </r>
       <r>   34.1610    0.0000 </r>
       <r>   34.5272    0.0000 </r>
       <r>   35.4363    0.0000 </r>
       <r>   35.5986    0.0000 </r>
       <r>   35.5986    0.0000 </r>
       <r>   36.1678    0.0000 </r>
       <r>   36.5740    0.0000 </r>
       <r>   36.5740    0.0000 </r>
       <r>   37.2075    0.0000 </r>
       <r>   37.2075    0.0000 </r>
       <r>   37.6343    0.0000 </r>
       <r>   38.4643    0.0000 </r>
       <r>   38.9846    0.0000 </r>
       <r>   38.9846    0.0000 </r>
       <r>   39.1056    0.0000 </r>
       <r>   39.9123    0.0000 </r>
       <r>   40.3397    0.0000 </r>
       <r>   40.8016    0.0000 </r>
       <r>   40.8377    0.0000 </r>
       <r>   40.8377    0.0000 </r>
       <r>   40.9127    0.0000 </r>
       <r>   41.3734    0.0000 </r>
       <r>   41.7057    0.0000 </r>
       <r>   41.8855    0.0000 </r>
       <r>   41.8855    0.0000 </r>
       <r>   42.2073    0.0000 </r>
       <r>   42.4089    0.0000 </r>
       <r>   42.6337    0.0000 </r>
       <r>   42.7386    0.0000 </r>
       <r>   42.7386    0.0000 </r>
       <r>   42.7779    0.0000 </r>
       <r>   42.7779    0.0000 </r>
       <r>   42.9166    0.0000 </r>
       <r>   43.0554    0.0000 </r>
       <r>   43.0554    0.0000 </r>
       <r>   43.3713    0.0000 </r>
       <r>   43.6304    0.0000 </r>
       <r>   43.8710    0.0000 </r>
       <r>   43.8710    0.0000 </r>
       <r>   44.3061    0.0000 </r>
       <r>   44.3061    0.0000 </r>
       <r>   44.4800    0.0000 </r>
       <r>   44.9645    0.0000 </r>
       <r>   45.0144    0.0000 </r>
      </set>
      <set comment="kpoint 7">
       <r>   -6.2327    1.0000 </r>
       <r>   -4.5707    1.0000 </r>
       <r>   -4.5707    1.0000 </r>
       <r>   -3.2481    1.0000 </r>
       <r>   -1.4880    1.0000 </r>
       <r>   -1.4880    1.0000 </r>
       <r>    0.1025    1.0000 </r>
       <r>    1.1706    1.0000 </r>
       <r>    1.1706    1.0000 </r>
       <r>    2.2314    1.0000 </r>
       <r>    2.3242    1.0000 </r>
       <r>    3.0756    1.0000 </r>
       <r>    3.0756    1.0000 </r>
       <r>    3.5945    1.0000 </r>
       <r>    5.5255    0.0000 </r>
       <r>    5.5255    0.0000 </r>
       <r>    6.3764    0.0000 </r>
       <r>    6.4587    0.0000 </r>
       <r>    6.4587    0.0000 </r>
       <r>    8.5871    0.0000 </r>
       <r>    8.7233    0.0000 </r>
       <r>    8.7233    0.0000 </r>
       <r>    9.7390    0.0000 </r>
       <r>    9.7390    0.0000 </r>
       <r>    9.9270    0.0000 </r>
       <r>   10.3289    0.0000 </r>
       <r>   10.3289    0.0000 </r>
       <r>   10.4157    0.0000 </r>
       <r>   11.7687    0.0000 </r>
       <r>   11.7687    0.0000 </r>
       <r>   12.5235    0.0000 </r>
       <r>   12.9671    0.0000 </r>
       <r>   12.9671    0.0000 </r>
       <r>   13.9517    0.0000 </r>
       <r>   14.0182    0.0000 </r>
       <r>   15.2283    0.0000 </r>
       <r>   15.3467    0.0000 </r>
       <r>   15.3467    0.0000 </r>
       <r>   15.7952    0.0000 </r>
       <r>   15.9597    0.0000 </r>
       <r>   15.9597    0.0000 </r>
       <r>   16.9740    0.0000 </r>
       <r>   17.3331    0.0000 </r>
       <r>   17.4766    0.0000 </r>
       <r>   17.4766    0.0000 </r>
       <r>   17.7512    0.0000 </r>
       <r>   18.5603    0.0000 </r>
       <r>   18.5603    0.0000 </r>
       <r>   19.4354    0.0000 </r>
       <r>   19.4354    0.0000 </r>
       <r>   19.4762    0.0000 </r>
       <r>   20.2203    0.0000 </r>
       <r>   20.2203    0.0000 </r>
       <r>   22.0342    0.0000 </r>
       <r>   22.0342    0.0000 </r>
       <r>   22.3114    0.0000 </r>
       <r>   22.3696    0.0000 </r>
       <r>   22.7935    0.0000 </r>
       <r>   22.7935    0.0000 </r>
       <r>   23.1591    0.0000 </r>
       <r>   23.2163    0.0000 </r>
       <r>   23.2163    0.0000 </r>
       <r>   23.9783    0.0000 </r>
       <r>   23.9988    0.0000 </r>
       <r>   23.9988    0.0000 </r>
       <r>   24.3959    0.0000 </r>
       <r>   24.6763    0.0000 </r>
       <r>   24.6763    0.0000 </r>
       <r>   24.7343    0.0000 </r>
       <r>   25.9330    0.0000 </r>
       <r>   25.9330    0.0000 </r>
       <r>   26.2947    0.0000 </r>
       <r>   26.5696    0.0000 </r>
       <r>   26.7050    0.0000 </r>
       <r>   26.7050    0.0000 </r>
       <r>   27.7135    0.0000 </r>
       <r>   27.7135    0.0000 </r>
       <r>   28.8522    0.0000 </r>
       <r>   28.9768    0.0000 </r>
       <r>   28.9768    0.0000 </r>
       <r>   29.7215    0.0000 </r>
       <r>   29.8471    0.0000 </r>
       <r>   29.8471    0.0000 </r>
       <r>   29.9646    0.0000 </r>
       <r>   30.3859    0.0000 </r>
       <r>   30.3859    0.0000 </r>
       <r>   31.3599    0.0000 </r>
       <r>   32.2623    0.0000 </r>
       <r>   32.2623    0.0000 </r>
       <r>   32.5090    0.0000 </r>
       <r>   32.9107    0.0000 </r>
       <r>   32.9107    0.0000 </r>
       <r>   33.4083    0.0000 </r>
       <r>   33.5570    0.0000 </r>
       <r>   33.5570    0.0000 </r>
       <r>   33.6535    0.0000 </r>
       <r>   34.1173    0.0000 </r>
       <r>   34.2244    0.0000 </r>
       <r>   34.2244    0.0000 </r>
       <r>   34.5768    0.0000 </r>
       <r>   34.8929    0.0000 </r>
       <r>   34.8929    0.0000 </r>
       <r>   35.7360    0.0000 </r>
       <r>   35.8591    0.0000 </r>
       <r>   35.8591    0.0000 </r>
       <r>   36.1798    0.0000 </r>
       <r>   36.3931    0.0000 </r>
       <r>   36.3931    0.0000 </r>
       <r>   37.0514    0.0000 </r>
       <r>   37.3710    0.0000 </r>
       <r>   37.3710    0.0000 </r>
       <r>   37.8277    0.0000 </r>
       <r>   37.8277    0.0000 </r>
       <r>   38.8859    0.0000 </r>
       <r>   39.2078    0.0000 </r>
       <r>   39.2078    0.0000 </r>
       <r>   39.2845    0.0000 </r>
       <r>   39.8815    0.0000 </r>
       <r>   39.8815    0.0000 </r>
       <r>   40.5560    0.0000 </r>
       <r>   40.5560    0.0000 </r>
       <r>   41.0968    0.0000 </r>
       <r>   41.1569    0.0000 </r>
       <r>   41.1569    0.0000 </r>
       <r>   41.6384    0.0000 </r>
       <r>   41.8678    0.0000 </r>
       <r>   41.8678    0.0000 </r>
       <r>   41.9742    0.0000 </r>
       <r>   42.8260    0.0000 </r>
       <r>   42.8260    0.0000 </r>
       <r>   42.9288    0.0000 </r>
       <r>   43.2976    0.0000 </r>
       <r>   43.3463    0.0000 </r>
       <r>   43.3463    0.0000 </r>
       <r>   43.7868    0.0000 </r>
       <r>   44.7054    0.0000 </r>
       <r>   44.7541    0.0000 </r>
       <r>   44.7541    0.0000 </r>
       <r>   45.2557    0.0000 </r>
       <r>   45.6484    0.0000 </r>
       <r>   45.6484    0.0000 </r>
       <r>   46.7210    0.0000 </r>
       <r>   46.7216    0.0000 </r>
       <r>   46.8417    0.0000 </r>
      </set>
      <set comment="kpoint 8">
       <r>   -5.7476    1.0000 </r>
       <r>   -5.2764    1.0000 </r>
       <r>   -4.4519    1.0000 </r>
       <r>   -3.2387    1.0000 </r>
       <r>   -1.8216    1.0000 </r>
       <r>   -1.1995    1.0000 </r>
       <r>   -0.4352    1.0000 </r>
       <r>    1.1786    1.0000 </r>
       <r>    1.8003    1.0000 </r>
       <r>    2.1309    1.0000 </r>
       <r>    2.5153    1.0000 </r>
       <r>    2.5944    1.0000 </r>
       <r>    3.0173    1.0000 </r>
       <r>    4.4099    1.0000 </r>
       <r>    4.9288    0.0000 </r>
       <r>    5.3234    0.0000 </r>
       <r>    6.9705    0.0000 </r>
       <r>    7.6005    0.0000 </r>
       <r>    7.8988    0.0000 </r>
       <r>    7.9317    0.0000 </r>
       <r>    7.9581    0.0000 </r>
       <r>    8.5246    0.0000 </r>
       <r>    9.5757    0.0000 </r>
       <r>    9.6240    0.0000 </r>
       <r>   10.0122    0.0000 </r>
       <r>   10.1862    0.0000 </r>
       <r>   10.2510    0.0000 </r>
       <r>   10.7800    0.0000 </r>
       <r>   11.7226    0.0000 </r>
       <r>   11.9080    0.0000 </r>
       <r>   12.4067    0.0000 </r>
       <r>   12.7384    0.0000 </r>
       <r>   12.7887    0.0000 </r>
       <r>   13.2092    0.0000 </r>
       <r>   14.2462    0.0000 </r>
       <r>   14.6368    0.0000 </r>
       <r>   14.8948    0.0000 </r>
       <r>   15.0650    0.0000 </r>
       <r>   15.4396    0.0000 </r>
       <r>   15.5359    0.0000 </r>
       <r>   15.9977    0.0000 </r>
       <r>   16.5596    0.0000 </r>
       <r>   16.8568    0.0000 </r>
       <r>   16.9126    0.0000 </r>
       <r>   18.1126    0.0000 </r>
       <r>   18.6178    0.0000 </r>
       <r>   18.7103    0.0000 </r>
       <r>   18.8171    0.0000 </r>
       <r>   18.8790    0.0000 </r>
       <r>   19.0547    0.0000 </r>
       <r>   20.2256    0.0000 </r>
       <r>   20.5533    0.0000 </r>
       <r>   20.6681    0.0000 </r>
       <r>   21.0178    0.0000 </r>
       <r>   21.2565    0.0000 </r>
       <r>   21.9842    0.0000 </r>
       <r>   22.2148    0.0000 </r>
       <r>   22.4476    0.0000 </r>
       <r>   23.0021    0.0000 </r>
       <r>   23.1069    0.0000 </r>
       <r>   23.2764    0.0000 </r>
       <r>   23.5841    0.0000 </r>
       <r>   23.9665    0.0000 </r>
       <r>   24.1237    0.0000 </r>
       <r>   24.1242    0.0000 </r>
       <r>   24.7173    0.0000 </r>
       <r>   24.9282    0.0000 </r>
       <r>   25.6883    0.0000 </r>
       <r>   25.7800    0.0000 </r>
       <r>   26.2897    0.0000 </r>
       <r>   26.4884    0.0000 </r>
       <r>   26.6370    0.0000 </r>
       <r>   27.0141    0.0000 </r>
       <r>   27.4912    0.0000 </r>
       <r>   27.9989    0.0000 </r>
       <r>   28.0861    0.0000 </r>
       <r>   28.2701    0.0000 </r>
       <r>   28.7780    0.0000 </r>
       <r>   29.3330    0.0000 </r>
       <r>   29.3516    0.0000 </r>
       <r>   29.5304    0.0000 </r>
       <r>   29.9902    0.0000 </r>
       <r>   30.1035    0.0000 </r>
       <r>   30.2353    0.0000 </r>
       <r>   30.4620    0.0000 </r>
       <r>   30.9076    0.0000 </r>
       <r>   30.9655    0.0000 </r>
       <r>   31.1813    0.0000 </r>
       <r>   31.7853    0.0000 </r>
       <r>   31.9013    0.0000 </r>
       <r>   32.1501    0.0000 </r>
       <r>   32.2741    0.0000 </r>
       <r>   32.7357    0.0000 </r>
       <r>   33.3968    0.0000 </r>
       <r>   33.9744    0.0000 </r>
       <r>   34.1932    0.0000 </r>
       <r>   34.4207    0.0000 </r>
       <r>   34.4746    0.0000 </r>
       <r>   34.7849    0.0000 </r>
       <r>   34.8529    0.0000 </r>
       <r>   35.0915    0.0000 </r>
       <r>   35.2714    0.0000 </r>
       <r>   35.6143    0.0000 </r>
       <r>   35.7476    0.0000 </r>
       <r>   35.8244    0.0000 </r>
       <r>   36.1323    0.0000 </r>
       <r>   36.2331    0.0000 </r>
       <r>   36.6452    0.0000 </r>
       <r>   36.7243    0.0000 </r>
       <r>   36.9914    0.0000 </r>
       <r>   37.1657    0.0000 </r>
       <r>   37.1665    0.0000 </r>
       <r>   37.3797    0.0000 </r>
       <r>   37.6155    0.0000 </r>
       <r>   37.9055    0.0000 </r>
       <r>   38.2581    0.0000 </r>
       <r>   38.8245    0.0000 </r>
       <r>   39.3985    0.0000 </r>
       <r>   39.7070    0.0000 </r>
       <r>   39.7460    0.0000 </r>
       <r>   39.8561    0.0000 </r>
       <r>   40.4829    0.0000 </r>
       <r>   40.9273    0.0000 </r>
       <r>   41.1703    0.0000 </r>
       <r>   41.2536    0.0000 </r>
       <r>   41.6227    0.0000 </r>
       <r>   41.6650    0.0000 </r>
       <r>   42.2229    0.0000 </r>
       <r>   42.4956    0.0000 </r>
       <r>   42.6159    0.0000 </r>
       <r>   43.1925    0.0000 </r>
       <r>   43.2755    0.0000 </r>
       <r>   43.5185    0.0000 </r>
       <r>   43.5870    0.0000 </r>
       <r>   44.1404    0.0000 </r>
       <r>   44.1562    0.0000 </r>
       <r>   44.8014    0.0000 </r>
       <r>   45.0490    0.0000 </r>
       <r>   45.2355    0.0000 </r>
       <r>   45.4237    0.0000 </r>
       <r>   45.8656    0.0000 </r>
       <r>   46.2711    0.0000 </r>
       <r>   47.0610    0.0000 </r>
       <r>   47.0851    0.0000 </r>
      </set>
      <set comment="kpoint 9">
       <r>   -5.1688    1.0000 </r>
       <r>   -5.1177    1.0000 </r>
       <r>   -5.1177    1.0000 </r>
       <r>   -3.4177    1.0000 </r>
       <r>   -1.4847    1.0000 </r>
       <r>   -1.4163    1.0000 </r>
       <r>   -1.4163    1.0000 </r>
       <r>    1.2624    1.0000 </r>
       <r>    2.1497    1.0000 </r>
       <r>    2.3274    1.0000 </r>
       <r>    2.3274    1.0000 </r>
       <r>    3.2825    1.0000 </r>
       <r>    3.3457    1.0000 </r>
       <r>    4.7366    0.8454 </r>
       <r>    5.5577    0.0000 </r>
       <r>    5.5577    0.0000 </r>
       <r>    6.9382    0.0000 </r>
       <r>    6.9382    0.0000 </r>
       <r>    7.5947    0.0000 </r>
       <r>    8.2584    0.0000 </r>
       <r>    8.2584    0.0000 </r>
       <r>    8.3833    0.0000 </r>
       <r>    8.5871    0.0000 </r>
       <r>    9.0747    0.0000 </r>
       <r>    9.2457    0.0000 </r>
       <r>   10.3081    0.0000 </r>
       <r>   10.3081    0.0000 </r>
       <r>   10.8170    0.0000 </r>
       <r>   12.4968    0.0000 </r>
       <r>   12.6306    0.0000 </r>
       <r>   12.6465    0.0000 </r>
       <r>   12.6465    0.0000 </r>
       <r>   13.8314    0.0000 </r>
       <r>   13.8314    0.0000 </r>
       <r>   13.8813    0.0000 </r>
       <r>   13.9656    0.0000 </r>
       <r>   14.2568    0.0000 </r>
       <r>   14.9089    0.0000 </r>
       <r>   14.9089    0.0000 </r>
       <r>   15.3089    0.0000 </r>
       <r>   16.1865    0.0000 </r>
       <r>   16.1937    0.0000 </r>
       <r>   16.1937    0.0000 </r>
       <r>   16.8980    0.0000 </r>
       <r>   18.1278    0.0000 </r>
       <r>   18.1278    0.0000 </r>
       <r>   18.2884    0.0000 </r>
       <r>   18.8014    0.0000 </r>
       <r>   19.0090    0.0000 </r>
       <r>   19.2368    0.0000 </r>
       <r>   19.2368    0.0000 </r>
       <r>   19.4789    0.0000 </r>
       <r>   20.1031    0.0000 </r>
       <r>   21.5575    0.0000 </r>
       <r>   21.5575    0.0000 </r>
       <r>   22.0586    0.0000 </r>
       <r>   22.3242    0.0000 </r>
       <r>   22.5010    0.0000 </r>
       <r>   22.6398    0.0000 </r>
       <r>   22.6398    0.0000 </r>
       <r>   23.7139    0.0000 </r>
       <r>   23.7139    0.0000 </r>
       <r>   23.7633    0.0000 </r>
       <r>   25.0554    0.0000 </r>
       <r>   25.3120    0.0000 </r>
       <r>   25.9181    0.0000 </r>
       <r>   25.9181    0.0000 </r>
       <r>   26.0434    0.0000 </r>
       <r>   26.9709    0.0000 </r>
       <r>   26.9709    0.0000 </r>
       <r>   27.1720    0.0000 </r>
       <r>   27.1858    0.0000 </r>
       <r>   27.3488    0.0000 </r>
       <r>   27.5060    0.0000 </r>
       <r>   27.5060    0.0000 </r>
       <r>   28.5254    0.0000 </r>
       <r>   28.7813    0.0000 </r>
       <r>   28.7813    0.0000 </r>
       <r>   29.2239    0.0000 </r>
       <r>   29.2336    0.0000 </r>
       <r>   29.5060    0.0000 </r>
       <r>   30.3536    0.0000 </r>
       <r>   30.3536    0.0000 </r>
       <r>   30.4035    0.0000 </r>
       <r>   30.5297    0.0000 </r>
       <r>   30.6927    0.0000 </r>
       <r>   30.6927    0.0000 </r>
       <r>   31.4725    0.0000 </r>
       <r>   32.0301    0.0000 </r>
       <r>   32.0301    0.0000 </r>
       <r>   32.1269    0.0000 </r>
       <r>   32.3555    0.0000 </r>
       <r>   32.7461    0.0000 </r>
       <r>   33.0493    0.0000 </r>
       <r>   33.0493    0.0000 </r>
       <r>   33.6291    0.0000 </r>
       <r>   33.6291    0.0000 </r>
       <r>   33.6960    0.0000 </r>
       <r>   33.7321    0.0000 </r>
       <r>   34.1627    0.0000 </r>
       <r>   34.9435    0.0000 </r>
       <r>   35.2277    0.0000 </r>
       <r>   35.2277    0.0000 </r>
       <r>   35.3158    0.0000 </r>
       <r>   35.7205    0.0000 </r>
       <r>   36.1760    0.0000 </r>
       <r>   36.2307    0.0000 </r>
       <r>   36.2307    0.0000 </r>
       <r>   36.8952    0.0000 </r>
       <r>   37.5063    0.0000 </r>
       <r>   37.5063    0.0000 </r>
       <r>   37.5233    0.0000 </r>
       <r>   37.8410    0.0000 </r>
       <r>   38.1925    0.0000 </r>
       <r>   38.1925    0.0000 </r>
       <r>   38.3033    0.0000 </r>
       <r>   39.0697    0.0000 </r>
       <r>   39.2437    0.0000 </r>
       <r>   39.2459    0.0000 </r>
       <r>   39.2459    0.0000 </r>
       <r>   39.6991    0.0000 </r>
       <r>   39.7842    0.0000 </r>
       <r>   39.7842    0.0000 </r>
       <r>   40.7978    0.0000 </r>
       <r>   41.0364    0.0000 </r>
       <r>   41.7206    0.0000 </r>
       <r>   41.7206    0.0000 </r>
       <r>   41.8503    0.0000 </r>
       <r>   42.0771    0.0000 </r>
       <r>   42.8737    0.0000 </r>
       <r>   42.8768    0.0000 </r>
       <r>   43.0392    0.0000 </r>
       <r>   43.0392    0.0000 </r>
       <r>   43.5026    0.0000 </r>
       <r>   44.1598    0.0000 </r>
       <r>   44.1598    0.0000 </r>
       <r>   44.3439    0.0000 </r>
       <r>   45.0555    0.0000 </r>
       <r>   45.0556    0.0000 </r>
       <r>   45.5330    0.0000 </r>
       <r>   45.5841    0.0000 </r>
       <r>   45.7068    0.0000 </r>
       <r>   45.7070    0.0000 </r>
       <r>   46.1999    0.0000 </r>
      </set>
      <set comment="kpoint 10">
       <r>   -4.9949    1.0000 </r>
       <r>   -4.9949    1.0000 </r>
       <r>   -4.9949    1.0000 </r>
       <r>   -3.4755    1.0000 </r>
       <r>   -1.9429    1.0000 </r>
       <r>   -1.9429    1.0000 </r>
       <r>   -1.9429    1.0000 </r>
       <r>    0.7058    1.0000 </r>
       <r>    3.3229    1.0000 </r>
       <r>    3.3229    1.0000 </r>
       <r>    3.3229    1.0000 </r>
       <r>    3.4132    1.0000 </r>
       <r>    3.4132    1.0000 </r>
       <r>    5.9219    0.0000 </r>
       <r>    5.9219    0.0000 </r>
       <r>    5.9219    0.0000 </r>
       <r>    6.2632    0.0000 </r>
       <r>    6.2632    0.0000 </r>
       <r>    6.2632    0.0000 </r>
       <r>    7.8527    0.0000 </r>
       <r>    7.8527    0.0000 </r>
       <r>    7.8527    0.0000 </r>
       <r>    8.7040    0.0000 </r>
       <r>    8.7040    0.0000 </r>
       <r>    9.7393    0.0000 </r>
       <r>    9.7393    0.0000 </r>
       <r>    9.7393    0.0000 </r>
       <r>    9.7663    0.0000 </r>
       <r>   12.5180    0.0000 </r>
       <r>   12.8433    0.0000 </r>
       <r>   12.8433    0.0000 </r>
       <r>   12.8433    0.0000 </r>
       <r>   15.1931    0.0000 </r>
       <r>   15.1931    0.0000 </r>
       <r>   15.1931    0.0000 </r>
       <r>   15.3280    0.0000 </r>
       <r>   15.3280    0.0000 </r>
       <r>   15.6577    0.0000 </r>
       <r>   15.6577    0.0000 </r>
       <r>   15.6577    0.0000 </r>
       <r>   16.2140    0.0000 </r>
       <r>   16.2140    0.0000 </r>
       <r>   16.2140    0.0000 </r>
       <r>   16.6299    0.0000 </r>
       <r>   16.7677    0.0000 </r>
       <r>   16.7677    0.0000 </r>
       <r>   16.7677    0.0000 </r>
       <r>   17.4715    0.0000 </r>
       <r>   17.4715    0.0000 </r>
       <r>   17.4715    0.0000 </r>
       <r>   17.7603    0.0000 </r>
       <r>   17.7603    0.0000 </r>
       <r>   19.0056    0.0000 </r>
       <r>   21.1669    0.0000 </r>
       <r>   21.1669    0.0000 </r>
       <r>   21.1669    0.0000 </r>
       <r>   24.6111    0.0000 </r>
       <r>   24.6887    0.0000 </r>
       <r>   24.6887    0.0000 </r>
       <r>   24.6887    0.0000 </r>
       <r>   25.1352    0.0000 </r>
       <r>   25.1352    0.0000 </r>
       <r>   25.1352    0.0000 </r>
       <r>   25.6809    0.0000 </r>
       <r>   26.2473    0.0000 </r>
       <r>   26.2473    0.0000 </r>
       <r>   26.2473    0.0000 </r>
       <r>   26.3910    0.0000 </r>
       <r>   26.3910    0.0000 </r>
       <r>   26.4344    0.0000 </r>
       <r>   26.4344    0.0000 </r>
       <r>   26.4344    0.0000 </r>
       <r>   26.6895    0.0000 </r>
       <r>   26.6895    0.0000 </r>
       <r>   26.6895    0.0000 </r>
       <r>   28.3161    0.0000 </r>
       <r>   28.3161    0.0000 </r>
       <r>   28.3161    0.0000 </r>
       <r>   29.6216    0.0000 </r>
       <r>   29.6216    0.0000 </r>
       <r>   30.2886    0.0000 </r>
       <r>   31.0682    0.0000 </r>
       <r>   31.0682    0.0000 </r>
       <r>   31.0682    0.0000 </r>
       <r>   31.3530    0.0000 </r>
       <r>   31.3530    0.0000 </r>
       <r>   31.3530    0.0000 </r>
       <r>   31.8255    0.0000 </r>
       <r>   31.8255    0.0000 </r>
       <r>   32.0393    0.0000 </r>
       <r>   32.0393    0.0000 </r>
       <r>   32.0393    0.0000 </r>
       <r>   32.4537    0.0000 </r>
       <r>   32.4537    0.0000 </r>
       <r>   32.4537    0.0000 </r>
       <r>   32.9260    0.0000 </r>
       <r>   32.9260    0.0000 </r>
       <r>   32.9260    0.0000 </r>
       <r>   33.8689    0.0000 </r>
       <r>   33.8689    0.0000 </r>
       <r>   33.8908    0.0000 </r>
       <r>   35.5064    0.0000 </r>
       <r>   36.3922    0.0000 </r>
       <r>   36.3922    0.0000 </r>
       <r>   36.3922    0.0000 </r>
       <r>   36.4732    0.0000 </r>
       <r>   36.4732    0.0000 </r>
       <r>   36.4732    0.0000 </r>
       <r>   36.9529    0.0000 </r>
       <r>   36.9529    0.0000 </r>
       <r>   36.9529    0.0000 </r>
       <r>   37.5039    0.0000 </r>
       <r>   37.5039    0.0000 </r>
       <r>   37.9427    0.0000 </r>
       <r>   37.9427    0.0000 </r>
       <r>   37.9427    0.0000 </r>
       <r>   38.2284    0.0000 </r>
       <r>   38.2284    0.0000 </r>
       <r>   38.2284    0.0000 </r>
       <r>   38.2697    0.0000 </r>
       <r>   39.7310    0.0000 </r>
       <r>   39.7310    0.0000 </r>
       <r>   39.7310    0.0000 </r>
       <r>   40.7561    0.0000 </r>
       <r>   40.7561    0.0000 </r>
       <r>   40.9327    0.0000 </r>
       <r>   41.5393    0.0000 </r>
       <r>   41.7281    0.0000 </r>
       <r>   41.7281    0.0000 </r>
       <r>   41.7281    0.0000 </r>
       <r>   41.8482    0.0000 </r>
       <r>   41.8482    0.0000 </r>
       <r>   41.8482    0.0000 </r>
       <r>   42.4701    0.0000 </r>
       <r>   42.4701    0.0000 </r>
       <r>   42.4701    0.0000 </r>
       <r>   45.4474    0.0000 </r>
       <r>   45.4474    0.0000 </r>
       <r>   45.7259    0.0000 </r>
       <r>   45.7259    0.0000 </r>
       <r>   45.7259    0.0000 </r>
       <r>   47.2269    0.0000 </r>
       <r>   47.2273    0.0000 </r>
       <r>   47.2276    0.0000 </r>
      </set>
     </set>
     <set comment="spin 2">
      <set comment="kpoint 1">
       <r>   -6.9484    1.0000 </r>
       <r>   -3.2770    1.0000 </r>
       <r>   -3.2770    1.0000 </r>
       <r>   -2.9057    1.0000 </r>
       <r>   -2.9057    1.0000 </r>
       <r>   -2.9057    1.0000 </r>
       <r>    1.2519    1.0000 </r>
       <r>    1.6810    1.0000 </r>
       <r>    1.6810    1.0000 </r>
       <r>    1.6810    1.0000 </r>
       <r>    2.9052    1.0000 </r>
       <r>    2.9052    1.0000 </r>
       <r>    2.9052    1.0000 </r>
       <r>    5.5848    0.0000 </r>
       <r>    5.5848    0.0000 </r>
       <r>    5.5848    0.0000 </r>
       <r>    5.5980    0.0000 </r>
       <r>    5.5980    0.0000 </r>
       <r>    6.1480    0.0000 </r>
       <r>    6.1480    0.0000 </r>
       <r>    6.1480    0.0000 </r>
       <r>    6.2456    0.0000 </r>
       <r>    8.5718    0.0000 </r>
       <r>    8.5718    0.0000 </r>
       <r>    8.5718    0.0000 </r>
       <r>   10.1991    0.0000 </r>
       <r>   12.9388    0.0000 </r>
       <r>   12.9388    0.0000 </r>
       <r>   13.1550    0.0000 </r>
       <r>   14.5945    0.0000 </r>
       <r>   14.5945    0.0000 </r>
       <r>   14.5945    0.0000 </r>
       <r>   15.5838    0.0000 </r>
       <r>   15.5838    0.0000 </r>
       <r>   15.5838    0.0000 </r>
       <r>   15.6442    0.0000 </r>
       <r>   15.6442    0.0000 </r>
[...]
        <r>  0.0000  0.0077  0.0004  0.0045  0.0000  0.0000  0.0000  0.0000  0.0000 </r>
       </set>
       <set comment="band 117">
        <r>  0.0004  0.0002  0.0000  0.0000  0.0000  0.0000  0.0000  0.0000  0.0000 </r>
        <r>  0.0038  0.0002  0.0000  0.0011  0.0000  0.0000  0.0000  0.0000  0.0000 </r>
        <r>  0.0016  0.0002  0.0000  0.0000  0.0000  0.0000  0.0000  0.0000  0.0000 </r>
        <r>  0.0160  0.0000  0.0002  0.0002  0.0000  0.0000  0.0000  0.0000  0.0000 </r>
        <r>  0.0041  0.0002  0.0001  0.0000  0.0000  0.0000  0.0000  0.0000  0.0000 </r>
        <r>  0.0026  0.0002  0.0011  0.0000  0.0000  0.0000  0.0000  0.0000  0.0000 </r>
        <r>  0.0034  0.0002  0.0001  0.0000  0.0000  0.0000  0.0000  0.0000  0.0000 </r>
       </set>
       <set comment="band 118">
        <r>  0.0040  0.0000  0.0000  0.0003  0.0000  0.0000  0.0000  0.0000  0.0000 </r>
        <r>  0.0013  0.0013  0.0000  0.0001  0.0000  0.0000  0.0000  0.0000  0.0000 </r>
        <r>  0.0007  0.0000  0.0000  0.0002  0.0000  0.0000  0.0000  0.0000  0.0000 </r>
        <r>  0.0020  0.0000  0.0013  0.0001  0.0000  0.0000  0.0000  0.0000  0.0000 </r>
        <r>  0.0024  0.0000  0.0000  0.0002  0.0000  0.0000  0.0000  0.0000  0.0000 </r>
        <r>  0.0191  0.0001  0.0001  0.0000  0.0000  0.0000  0.0000  0.0000  0.0000 </r>
        <r>  0.0023  0.0000  0.0000  0.0002  0.0000  0.0000  0.0000  0.0000  0.0000 </r>
       </set>
       <set comment="band 119">
        <r>  0.0027  0.0001  0.0002  0.0000  0.0000  0.0000  0.0000  0.0000  0.0000 </r>
        <r>  0.0173  0.0000  0.0000  0.0003  0.0000  0.0000  0.0000  0.0000  0.0000 </r>
        <r>  0.0048  0.0001  0.0003  0.0000  0.0000  0.0000  0.0000  0.0000  0.0000 </r>
        <r>  0.0044  0.0000  0.0000  0.0011  0.0000  0.0000  0.0000  0.0000  0.0000 </r>
        <r>  0.0006  0.0000  0.0002  0.0000  0.0000  0.0000  0.0000  0.0000  0.0000 </r>
        <r>  0.0007  0.0011  0.0003  0.0000  0.0000  0.0000  0.0000  0.0000  0.0000 </r>
        <r>  0.0014  0.0000  0.0002  0.0000  0.0000  0.0000  0.0000  0.0000  0.0000 </r>
       </set>
       <set comment="band 120">
        <r>  0.0170  0.0001  0.0001  0.0001  0.0000  0.0000  0.0000  0.0000  0.0000 </r>
        <r>  0.0000  0.0000  0.0000  0.0000  0.0000  0.0000  0.0000  0.0000  0.0000 </r>
        <r>  0.0170  0.0001  0.0001  0.0001  0.0000  0.0000  0.0000  0.0000  0.0000 </r>
        <r>  0.0000  0.0000  0.0000  0.0000  0.0000  0.0000  0.0000  0.0000  0.0000 </r>
        <r>  0.0170  0.0001  0.0001  0.0001  0.0000  0.0000  0.0000  0.0000  0.0000 </r>
        <r>  0.0000  0.0000  0.0000  0.0000  0.0000  0.0000  0.0000  0.0000  0.0000 </r>
        <r>  0.0170  0.0001  0.0001  0.0001  0.0000  0.0000  0.0000  0.0000  0.0000 </r>
       </set>
       <set comment="band 121">
        <r>  0.0149  0.0027  0.0023  0.0033  0.0000  0.0000  0.0000  0.0000  0.0000 </r>
        <r>  0.0027  0.0006  0.0000  0.0038  0.0000  0.0000  0.0000  0.0000  0.0000 </r>
        <r>  0.0243  0.0046  0.0041  0.0049  0.0000  0.0000  0.0000  0.0000  0.0000 </r>
        <r>  0.0008  0.0000  0.0006  0.0131  0.0000  0.0000  0.0000  0.0000  0.0000 </r>
        <r>  0.0012  0.0003  0.0001  0.0003  0.0000  0.0000  0.0000  0.0000  0.0000 </r>
        <r>  0.0001  0.0131  0.0038  0.0000  0.0000  0.0000  0.0000  0.0000  0.0000 </r>
        <r>  0.0057  0.0014  0.0008  0.0011  0.0000  0.0000  0.0000  0.0000  0.0000 </r>
       </set>
       <set comment="band 122">
        <r>  0.0184  0.0037  0.0037  0.0029  0.0000  0.0000  0.0000  0.0000  0.0000 </r>
        <r>  0.0002  0.0156  0.0000  0.0009  0.0000  0.0000  0.0000  0.0000  0.0000 </r>
        <r>  0.0045  0.0011  0.0010  0.0005  0.0000  0.0000  0.0000  0.0000  0.0000 </r>
        <r>  0.0002  0.0000  0.0156  0.0011  0.0000  0.0000  0.0000  0.0000  0.0000 </r>
        <r>  0.0114  0.0025  0.0022  0.0017  0.0000  0.0000  0.0000  0.0000  0.0000 </r>
        <r>  0.0032  0.0011  0.0009  0.0000  0.0000  0.0000  0.0000  0.0000  0.0000 </r>
        <r>  0.0119  0.0023  0.0026  0.0018  0.0000  0.0000  0.0000  0.0000  0.0000 </r>
       </set>
       <set comment="band 123">
        <r>  0.0013  0.0001  0.0004  0.0003  0.0000  0.0000  0.0000  0.0000  0.0000 </r>
        <r>  0.0007  0.0013  0.0000  0.0129  0.0000  0.0000  0.0000  0.0000  0.0000 </r>
        <r>  0.0057  0.0008  0.0014  0.0011  0.0000  0.0000  0.0000  0.0000  0.0000 </r>
        <r>  0.0026  0.0000  0.0013  0.0034  0.0000  0.0000  0.0000  0.0000  0.0000 </r>
        <r>  0.0220  0.0036  0.0042  0.0045  0.0000  0.0000  0.0000  0.0000  0.0000 </r>
        <r>  0.0003  0.0034  0.0129  0.0000  0.0000  0.0000  0.0000  0.0000  0.0000 </r>
        <r>  0.0170  0.0028  0.0031  0.0036  0.0000  0.0000  0.0000  0.0000  0.0000 </r>
       </set>
       <set comment="band 124">
        <r>  0.0000  0.0038  0.0069  0.0017  0.0000  0.0000  0.0000  0.0000  0.0000 </r>
        <r>  0.0000  0.0000  0.0071  0.0000  0.0000  0.0000  0.0000  0.0000  0.0000 </r>
        <r>  0.0000  0.0038  0.0069  0.0017  0.0000  0.0000  0.0000  0.0000  0.0000 </r>
        <r>  0.0000  0.0039  0.0000  0.0000  0.0000  0.0000  0.0000  0.0000  0.0000 </r>
        <r>  0.0000  0.0038  0.0069  0.0017  0.0000  0.0000  0.0000  0.0000  0.0000 </r>
        <r>  0.0000  0.0000  0.0000  0.0018  0.0000  0.0000  0.0000  0.0000  0.0000 </r>
        <r>  0.0000  0.0038  0.0069  0.0017  0.0000  0.0000  0.0000  0.0000  0.0000 </r>
       </set>
       <set comment="band 125">
        <r>  0.0000  0.0045  0.0013  0.0066  0.0000  0.0000  0.0000  0.0000  0.0000 </r>
        <r>  0.0000  0.0000  0.0014  0.0000  0.0000  0.0000  0.0000  0.0000  0.0000 </r>
        <r>  0.0000  0.0045  0.0013  0.0066  0.0000  0.0000  0.0000  0.0000  0.0000 </r>
        <r>  0.0000  0.0046  0.0000  0.0000  0.0000  0.0000  0.0000  0.0000  0.0000 </r>
        <r>  0.0000  0.0045  0.0013  0.0066  0.0000  0.0000  0.0000  0.0000  0.0000 </r>
        <r>  0.0000  0.0000  0.0000  0.0067  0.0000  0.0000  0.0000  0.0000  0.0000 </r>
        <r>  0.0000  0.0045  0.0013  0.0066  0.0000  0.0000  0.0000  0.0000  0.0000 </r>
       </set>
       <set comment="band 126">
        <r>  0.0000  0.0000  0.0000  0.0000  0.0000  0.0000  0.0000  0.0000  0.0000 </r>
        <r>  0.0000  0.0000  0.0000  0.0000  0.0000  0.0000  0.0000  0.0000  0.0000 </r>
        <r>  0.0000  0.0000  0.0000  0.0000  0.0000  0.0000  0.0000  0.0000  0.0000 </r>
        <r>  0.0000  0.0000  0.0000  0.0000  0.0000  0.0000  0.0000  0.0000  0.0000 </r>
        <r>  0.0000  0.0000  0.0000  0.0000  0.0000  0.0000  0.0000  0.0000  0.0000 </r>
        <r>  0.0000  0.0000  0.0000  0.0000  0.0000  0.0000  0.0000  0.0000  0.0000 </r>
        <r>  0.0000  0.0000  0.0000  0.0000  0.0000  0.0000  0.0000  0.0000  0.0000 </r>
       </set>
       <set comment="band 127">
        <r>  0.0057  0.0024  0.0024  0.0024  0.0000  0.0000  0.0000  0.0000  0.0000 </r>
        <r>  0.0000  0.0000  0.0046  0.0000  0.0000  0.0000  0.0000  0.0000  0.0000 </r>
        <r>  0.0057  0.0024  0.0024  0.0024  0.0000  0.0000  0.0000  0.0000  0.0000 </r>
        <r>  0.0000  0.0046  0.0000  0.0000  0.0000  0.0000  0.0000  0.0000  0.0000 </r>
        <r>  0.0057  0.0024  0.0024  0.0024  0.0000  0.0000  0.0000  0.0000  0.0000 </r>
        <r>  0.0000  0.0000  0.0000  0.0046  0.0000  0.0000  0.0000  0.0000  0.0000 </r>
        <r>  0.0057  0.0024  0.0024  0.0024  0.0000  0.0000  0.0000  0.0000  0.0000 </r>
       </set>
       <set comment="band 128">
        <r>  0.0000  0.0045  0.0017  0.0005  0.0000  0.0000  0.0000  0.0000  0.0000 </r>
        <r>  0.0108  0.0001  0.0000  0.0013  0.0000  0.0000  0.0000  0.0000  0.0000 </r>
        <r>  0.0001  0.0041  0.0019  0.0003  0.0000  0.0000  0.0000  0.0000  0.0000 </r>
        <r>  0.0348  0.0000  0.0001  0.0004  0.0000  0.0000  0.0000  0.0000  0.0000 </r>
        <r>  0.0006  0.0029  0.0006  0.0003  0.0000  0.0000  0.0000  0.0000  0.0000 </r>
        <r>  0.0035  0.0004  0.0013  0.0000  0.0000  0.0000  0.0000  0.0000  0.0000 </r>
        <r>  0.0004  0.0033  0.0007  0.0008  0.0000  0.0000  0.0000  0.0000  0.0000 </r>
       </set>
       <set comment="band 129">
        <r>  0.0004  0.0001  0.0003  0.0043  0.0000  0.0000  0.0000  0.0000  0.0000 </r>
        <r>  0.0021  0.0017  0.0000  0.0001  0.0000  0.0000  0.0000  0.0000  0.0000 </r>
        <r>  0.0001  0.0006  0.0004  0.0051  0.0000  0.0000  0.0000  0.0000  0.0000 </r>
        <r>  0.0026  0.0000  0.0017  0.0001  0.0000  0.0000  0.0000  0.0000  0.0000 </r>
        <r>  0.0002  0.0006  0.0001  0.0048  0.0000  0.0000  0.0000  0.0000  0.0000 </r>
        <r>  0.0445  0.0001  0.0001  0.0000  0.0000  0.0000  0.0000  0.0000  0.0000 </r>
        <r>  0.0003  0.0001  0.0005  0.0046  0.0000  0.0000  0.0000  0.0000  0.0000 </r>
       </set>
       <set comment="band 130">
        <r>  0.0004  0.0008  0.0034  0.0006  0.0000  0.0000  0.0000  0.0000  0.0000 </r>
        <r>  0.0363  0.0000  0.0000  0.0004  0.0000  0.0000  0.0000  0.0000  0.0000 </r>
        <r>  0.0006  0.0007  0.0031  0.0001  0.0000  0.0000  0.0000  0.0000  0.0000 </r>
        <r>  0.0118  0.0000  0.0000  0.0014  0.0000  0.0000  0.0000  0.0000  0.0000 </r>
        <r>  0.0000  0.0018  0.0046  0.0002  0.0000  0.0000  0.0000  0.0000  0.0000 </r>
        <r>  0.0011  0.0014  0.0004  0.0000  0.0000  0.0000  0.0000  0.0000  0.0000 </r>
        <r>  0.0001  0.0020  0.0042  0.0000  0.0000  0.0000  0.0000  0.0000  0.0000 </r>
       </set>
       <set comment="band 131">
        <r>  0.0000  0.0001  0.0005  0.0011  0.0000  0.0000  0.0000  0.0000  0.0000 </r>
        <r>  0.0000  0.0000  0.0000  0.0000  0.0000  0.0000  0.0000  0.0000  0.0000 </r>
        <r>  0.0000  0.0007  0.0001  0.0011  0.0000  0.0000  0.0000  0.0000  0.0000 </r>
        <r>  0.0000  0.0000  0.0000  0.0000  0.0000  0.0000  0.0000  0.0000  0.0000 </r>
        <r>  0.0000  0.0001  0.0001  0.0001  0.0000  0.0000  0.0000  0.0000  0.0000 </r>
        <r>  0.0000  0.0000  0.0000  0.0000  0.0000  0.0000  0.0000  0.0000  0.0000 </r>
        <r>  0.0000  0.0007  0.0005  0.0001  0.0000  0.0000  0.0000  0.0000  0.0000 </r>
       </set>
       <set comment="band 132">
        <r>  0.0000  0.0012  0.0007  0.0001  0.0000  0.0000  0.0000  0.0000  0.0000 </r>
        <r>  0.0000  0.0001  0.0000  0.0000  0.0000  0.0000  0.0000  0.0000  0.0000 </r>
        <r>  0.0000  0.0001  0.0003  0.0001  0.0000  0.0000  0.0000  0.0000  0.0000 </r>
        <r>  0.0000  0.0000  0.0001  0.0000  0.0000  0.0000  0.0000  0.0000  0.0000 </r>
        <r>  0.0000  0.0012  0.0003  0.0003  0.0000  0.0000  0.0000  0.0000  0.0000 </r>
        <r>  0.0000  0.0000  0.0000  0.0000  0.0000  0.0000  0.0000  0.0000  0.0000 </r>
        <r>  0.0000  0.0001  0.0007  0.0003  0.0000  0.0000  0.0000  0.0000  0.0000 </r>
       </set>
       <set comment="band 133">
        <r>  0.0000  0.0000  0.0001  0.0002  0.0000  0.0000  0.0000  0.0000  0.0000 </r>
        <r>  0.0000  0.0000  0.0000  0.0001  0.0000  0.0000  0.0000  0.0000  0.0000 </r>
        <r>  0.0000  0.0005  0.0010  0.0002  0.0000  0.0000  0.0000  0.0000  0.0000 </r>
        <r>  0.0000  0.0000  0.0000  0.0000  0.0000  0.0000  0.0000  0.0000  0.0000 </r>
        <r>  0.0000  0.0000  0.0010  0.0008  0.0000  0.0000  0.0000  0.0000  0.0000 </r>
        <r>  0.0000  0.0000  0.0001  0.0000  0.0000  0.0000  0.0000  0.0000  0.0000 </r>
        <r>  0.0000  0.0005  0.0001  0.0008  0.0000  0.0000  0.0000  0.0000  0.0000 </r>
       </set>
       <set comment="band 134">
        <r>  0.0245  0.0002  0.0001  0.0003  0.0000  0.0000  0.0000  0.0000  0.0000 </r>
        <r>  0.0044  0.0000  0.0000  0.0000  0.0000  0.0000  0.0000  0.0000  0.0000 </r>
        <r>  0.0330  0.0003  0.0002  0.0003  0.0000  0.0000  0.0000  0.0000  0.0000 </r>
        <r>  0.0013  0.0000  0.0000  0.0000  0.0000  0.0000  0.0000  0.0000  0.0000 </r>
        <r>  0.0025  0.0001  0.0000  0.0000  0.0000  0.0000  0.0000  0.0000  0.0000 </r>
        <r>  0.0001  0.0000  0.0000  0.0000  0.0000  0.0000  0.0000  0.0000  0.0000 </r>
        <r>  0.0052  0.0001  0.0000  0.0000  0.0000  0.0000  0.0000  0.0000  0.0000 </r>
       </set>
       <set comment="band 135">
        <r>  0.0228  0.0002  0.0002  0.0001  0.0000  0.0000  0.0000  0.0000  0.0000 </r>
        <r>  0.0001  0.0000  0.0000  0.0000  0.0000  0.0000  0.0000  0.0000  0.0000 </r>
        <r>  0.0092  0.0001  0.0001  0.0000  0.0000  0.0000  0.0000  0.0000  0.0000 </r>
        <r>  0.0003  0.0000  0.0000  0.0000  0.0000  0.0000  0.0000  0.0000  0.0000 </r>
        <r>  0.0141  0.0002  0.0001  0.0000  0.0000  0.0000  0.0000  0.0000  0.0000 </r>
        <r>  0.0054  0.0000  0.0000  0.0000  0.0000  0.0000  0.0000  0.0000  0.0000 </r>
        <r>  0.0190  0.0002  0.0002  0.0001  0.0000  0.0000  0.0000  0.0000  0.0000 </r>
       </set>
       <set comment="band 136">
        <r>  0.0015  0.0000  0.0001  0.0000  0.0000  0.0000  0.0000  0.0000  0.0000 </r>
        <r>  0.0012  0.0000  0.0000  0.0000  0.0000  0.0000  0.0000  0.0000  0.0000 </r>
        <r>  0.0066  0.0000  0.0001  0.0001  0.0000  0.0000  0.0000  0.0000  0.0000 </r>
        <r>  0.0042  0.0000  0.0000  0.0000  0.0000  0.0000  0.0000  0.0000  0.0000 </r>
        <r>  0.0323  0.0002  0.0003  0.0003  0.0000  0.0000  0.0000  0.0000  0.0000 </r>
        <r>  0.0003  0.0000  0.0000  0.0000  0.0000  0.0000  0.0000  0.0000  0.0000 </r>
        <r>  0.0247  0.0001  0.0002  0.0003  0.0000  0.0000  0.0000  0.0000  0.0000 </r>
       </set>
       <set comment="band 137">
        <r>  0.0000  0.0004  0.0004  0.0003  0.0000  0.0000  0.0000  0.0000  0.0000 </r>
        <r>  0.0000  0.0000  0.0002  0.0000  0.0000  0.0000  0.0000  0.0000  0.0000 </r>
        <r>  0.0000  0.0004  0.0004  0.0003  0.0000  0.0000  0.0000  0.0000  0.0000 </r>
        <r>  0.0000  0.0003  0.0000  0.0000  0.0000  0.0000  0.0000  0.0000  0.0000 </r>
        <r>  0.0000  0.0004  0.0004  0.0003  0.0000  0.0000  0.0000  0.0000  0.0000 </r>
        <r>  0.0000  0.0000  0.0000  0.0002  0.0000  0.0000  0.0000  0.0000  0.0000 </r>
        <r>  0.0000  0.0004  0.0004  0.0003  0.0000  0.0000  0.0000  0.0000  0.0000 </r>
       </set>
       <set comment="band 138">
        <r>  0.0000  0.0003  0.0004  0.0004  0.0000  0.0000  0.0000  0.0000  0.0000 </r>
        <r>  0.0000  0.0000  0.0002  0.0000  0.0000  0.0000  0.0000  0.0000  0.0000 </r>
        <r>  0.0000  0.0003  0.0004  0.0004  0.0000  0.0000  0.0000  0.0000  0.0000 </r>
        <r>  0.0000  0.0002  0.0000  0.0000  0.0000  0.0000  0.0000  0.0000  0.0000 </r>
        <r>  0.0000  0.0003  0.0004  0.0004  0.0000  0.0000  0.0000  0.0000  0.0000 </r>
        <r>  0.0000  0.0000  0.0000  0.0003  0.0000  0.0000  0.0000  0.0000  0.0000 </r>
        <r>  0.0000  0.0003  0.0004  0.0004  0.0000  0.0000  0.0000  0.0000  0.0000 </r>
       </set>
       <set comment="band 139">
        <r>  0.0000  0.0001  0.0000  0.0000  0.0000  0.0000  0.0000  0.0000  0.0000 </r>
        <r>  0.0000  0.0001  0.0000  0.0001  0.0000  0.0000  0.0000  0.0000  0.0000 </r>
        <r>  0.0000  0.0000  0.0002  0.0000  0.0000  0.0000  0.0000  0.0000  0.0000 </r>
        <r>  0.0000  0.0000  0.0001  0.0000  0.0000  0.0000  0.0000  0.0000  0.0000 </r>
        <r>  0.0000  0.0001  0.0002  0.0001  0.0000  0.0000  0.0000  0.0000  0.0000 </r>
        <r>  0.0000  0.0000  0.0001  0.0000  0.0000  0.0000  0.0000  0.0000  0.0000 </r>
        <r>  0.0000  0.0000  0.0000  0.0001  0.0000  0.0000  0.0000  0.0000  0.0000 </r>
       </set>
       <set comment="band 140">
        <r>  0.0000  0.0001  0.0002  0.0001  0.0000  0.0000  0.0000  0.0000  0.0000 </r>
        <r>  0.0000  0.0001  0.0000  0.0001  0.0000  0.0000  0.0000  0.0000  0.0000 </r>
        <r>  0.0000  0.0000  0.0000  0.0001  0.0000  0.0000  0.0000  0.0000  0.0000 </r>
        <r>  0.0000  0.0000  0.0001  0.0000  0.0000  0.0000  0.0000  0.0000  0.0000 </r>
        <r>  0.0000  0.0001  0.0000  0.0001  0.0000  0.0000  0.0000  0.0000  0.0000 </r>
        <r>  0.0000  0.0000  0.0001  0.0000  0.0000  0.0000  0.0000  0.0000  0.0000 </r>
        <r>  0.0000  0.0000  0.0002  0.0001  0.0000  0.0000  0.0000  0.0000  0.0000 </r>
       </set>
       <set comment="band 141">
        <r>  0.0000  0.0001  0.0000  0.0001  0.0000  0.0000  0.0000  0.0000  0.0000 </r>
        <r>  0.0000  0.0000  0.0000  0.0000  0.0000  0.0000  0.0000  0.0000  0.0000 </r>
        <r>  0.0000  0.0001  0.0000  0.0001  0.0000  0.0000  0.0000  0.0000  0.0000 </r>
        <r>  0.0000  0.0000  0.0000  0.0002  0.0000  0.0000  0.0000  0.0000  0.0000 </r>
        <r>  0.0000  0.0001  0.0000  0.0001  0.0000  0.0000  0.0000  0.0000  0.0000 </r>
        <r>  0.0000  0.0002  0.0000  0.0000  0.0000  0.0000  0.0000  0.0000  0.0000 </r>
        <r>  0.0000  0.0001  0.0000  0.0001  0.0000  0.0000  0.0000  0.0000  0.0000 </r>
       </set>
       <set comment="band 142">
        <r>  0.0010  0.0004  0.0001  0.0001  0.0000  0.0000  0.0000  0.0000  0.0000 </r>
        <r>  0.0001  0.0000  0.0000  0.0001  0.0000  0.0000  0.0000  0.0000  0.0000 </r>
        <r>  0.0034  0.0004  0.0001  0.0000  0.0000  0.0000  0.0000  0.0000  0.0000 </r>
        <r>  0.0003  0.0000  0.0000  0.0000  0.0000  0.0000  0.0000  0.0000  0.0000 </r>
        <r>  0.0111  0.0003  0.0001  0.0001  0.0000  0.0000  0.0000  0.0000  0.0000 </r>
        <r>  0.0001  0.0000  0.0001  0.0000  0.0000  0.0000  0.0000  0.0000  0.0000 </r>
        <r>  0.0100  0.0003  0.0000  0.0001  0.0000  0.0000  0.0000  0.0000  0.0000 </r>
       </set>
       <set comment="band 143">
        <r>  0.0093  0.0000  0.0000  0.0004  0.0000  0.0000  0.0000  0.0000  0.0000 </r>
        <r>  0.0000  0.0002  0.0000  0.0000  0.0000  0.0000  0.0000  0.0000  0.0000 </r>
        <r>  0.0026  0.0001  0.0001  0.0004  0.0000  0.0000  0.0000  0.0000  0.0000 </r>
        <r>  0.0000  0.0000  0.0002  0.0000  0.0000  0.0000  0.0000  0.0000  0.0000 </r>
        <r>  0.0072  0.0001  0.0000  0.0004  0.0000  0.0000  0.0000  0.0000  0.0000 </r>
        <r>  0.0004  0.0000  0.0000  0.0000  0.0000  0.0000  0.0000  0.0000  0.0000 </r>
        <r>  0.0064  0.0000  0.0000  0.0004  0.0000  0.0000  0.0000  0.0000  0.0000 </r>
       </set>
       <set comment="band 144">
        <r>  0.0087  0.0001  0.0003  0.0000  0.0000  0.0000  0.0000  0.0000  0.0000 </r>
        <r>  0.0004  0.0000  0.0000  0.0000  0.0000  0.0000  0.0000  0.0000  0.0000 </r>
        <r>  0.0130  0.0001  0.0003  0.0000  0.0000  0.0000  0.0000  0.0000  0.0000 </r>
        <r>  0.0001  0.0000  0.0000  0.0002  0.0000  0.0000  0.0000  0.0000  0.0000 </r>
        <r>  0.0008  0.0001  0.0004  0.0000  0.0000  0.0000  0.0000  0.0000  0.0000 </r>
        <r>  0.0000  0.0001  0.0001  0.0000  0.0000  0.0000  0.0000  0.0000  0.0000 </r>
        <r>  0.0027  0.0001  0.0004  0.0000  0.0000  0.0000  0.0000  0.0000  0.0000 </r>
       </set>
      </set>
     </set>
    </set>
   </array>
  </projected>
 </calculation>
 <structure name="finalpos" >
  <crystal>
   <varray name="basis" >
    <v>       5.43784835       0.00000000       0.00000000 </v>
    <v>       0.00000000       5.43784835       0.00000000 </v>
    <v>       0.00000000       0.00000000       5.43784835 </v>
   </varray>
   <i name="volume">    160.79823434 </i>
   <varray name="rec_basis" >
    <v>       0.18389626       0.00000000       0.00000000 </v>
    <v>       0.00000000       0.18389626       0.00000000 </v>
    <v>       0.00000000       0.00000000       0.18389626 </v>
   </varray>
  </crystal>
  <varray name="positions" >
   <v>       0.25330995       0.74669005       0.25330995 </v>
   <v>       0.00000000       0.00000000       0.50000000 </v>
   <v>       0.25330995       0.25330995       0.74669005 </v>
   <v>       0.00000000       0.50000000       0.00000000 </v>
   <v>       0.74669005       0.74669005       0.74669005 </v>
   <v>       0.50000000       0.00000000       0.00000000 </v>
   <v>       0.74669005       0.25330995       0.25330995 </v>
  </varray>
 </structure>
</modeling>
