------------------------------------------------------------
          Invoking FHI-aims ...

          When using FHI-aims, please cite the following reference:

            Volker Blum, Ralf Gehrke, Felix Hanke, Paula Havu,
            Ville Havu, Xinguo Ren, Karsten Reuter, and Matthias Scheffler,
            'Ab Initio Molecular Simulations with Numeric Atom-Centered Orbitals',
            Computer Physics Communications 180, 2175-2196 (2009)

          In addition, many other developments in FHI-aims are likely important for
          your particular application. A partial list of references is given at the end of
          this file. Thank you for giving credit to the authors of these developments.

          For any questions about FHI-aims, please visit our slack channel at

            https://fhi-aims.slack.com

          and our main development and support site at

            https://aims-git.rz-berlin.mpg.de .

          The latter site, in particular, has a wiki to collect information, as well
          as an issue tracker to log discussions, suggest improvements, and report issues
          or bugs. https://aims-git.rz-berlin.mpg.de is also the main development site
          of the project and all new and updated code versions can be obtained there.
          Please send an email to aims-coordinators@fhi-berlin.mpg.de and we will add
          you to these sites. They are for you and everyone is welcome there.

------------------------------------------------------------



  Date     :  20230117, Time     :  114544.660
  Time zero on CPU 1             :   0.474143400000000E+01  s.
  Internal wall clock time zero  :           443187944.660  s.

  FHI-aims created a unique identifier for this run for later identification
  aims_uuid : 1842BF69-05B0-47B3-A510-68677842FECA

  Build configuration of the current instance of FHI-aims
  -------------------------------------------------------
  FHI-aims version      : 221103
  Commit number         : cc62f3b89
  CMake host system     : Linux-5.15.0-56-generic
  CMake version         : 3.22.1
  Fortran compiler      : /opt/intel/oneapi/mpi/2021.8.0/bin/mpiifort (Intel) version 2021.8.0.20221119
  Fortran compiler flags: -O3 -ip -fp-model precise
  C compiler            : /opt/intel/oneapi/compiler/2023.0.0/linux/bin/intel64/icc (Intel) version 2021.8.0.20221119
  C compiler flags      : -O3 -ip -fp-model precise -std=gnu99 -diag-disable=10441
  HIP compiler          :
  HIP compiler flags    :
  HIP GPU arch          :
  Using MPI
  Using ScaLAPACK
  Using LibXC
  Using i-PI
  Using RLSY
  Linking against: /opt/intel/oneapi/mkl/latest/lib/intel64/libmkl_intel_lp64.so
                   /opt/intel/oneapi/mkl/latest/lib/intel64/libmkl_sequential.so
                   /opt/intel/oneapi/mkl/latest/lib/intel64/libmkl_core.so
                   /opt/intel/oneapi/mkl/latest/lib/intel64/libmkl_blacs_intelmpi_lp64.so
                   /opt/intel/oneapi/mkl/latest/lib/intel64/libmkl_scalapack_lp64.so

  Using        8 parallel tasks.
  Task        0 on host andrey-Latitude-5411 reporting.
  Task        1 on host andrey-Latitude-5411 reporting.
  Task        2 on host andrey-Latitude-5411 reporting.
  Task        3 on host andrey-Latitude-5411 reporting.
  Task        4 on host andrey-Latitude-5411 reporting.
  Task        5 on host andrey-Latitude-5411 reporting.
  Task        6 on host andrey-Latitude-5411 reporting.
  Task        7 on host andrey-Latitude-5411 reporting.

  Obtaining array dimensions for all initial allocations:

  -----------------------------------------------------------------------
  Parsing control.in (first pass over file, find array dimensions only).
  The contents of control.in will be repeated verbatim below
  unless switched off by setting 'verbatim_writeout .false.' .
  in the first line of control.in .
  -----------------------------------------------------------------------

  #########################################################################################
  #
  #  Volker Blum, FHI 2010 : Input file for FHI-aims
  #
  #
  #########################################################################################
    #
    #  Physical model settings
    #
      xc               hse06 0.11     # positive screening parameter omega
      hse_unit b
      charge           0.
      spin             none
  #    default_initial_moment    0.0
  #    default_initial_moment 0.0
  #   fixed_spin_moment 2.0
      relativistic     atomic_zora scalar
      include_spin_orbit
      vdw_correction_hirshfeld
      use_dipole_correction
  # to evaluate work function of both surface of slab
      evaluate_work_function

    #
    #  SCF convergence settings
    #
      occupation_type  gaussian 0.01
      mixer            pulay
        n_max_pulay             6
        charge_mix_param        0.1
        ini_linear_mixing     10
        ini_linear_mix_param  0.05
        # preconditioner kerker 1.5
        # precondition_max_l    0
        # preconditioner turnoff charge 1e-4
        # preconditioner turnoff sum_ev 1e-1
      sc_accuracy_rho  1E-3
      sc_accuracy_eev  1E-2
      sc_accuracy_etot 1E-5
      sc_iter_limit    200
    #
    elsi_restart read_and_write 10
    #
    #  For periodic boundary conditions
    #
  # here the k-mesh is given
     k_grid 25 25 1
      output band 0.0 0.0 0.0 0.0 0.5 0.0 21 G M
      output band 0.0 0.5 0.0 0.3333 0.3333 0.0 21 M K
      output band 0.3333 0.3333 0.0 0.0 0.0 0.0 21 K G
      output band 0.0 0.0 0.0 -0.3333 -0.3333 0.0 21 G Kp


      output band_mulliken 0.0 0.0 0.0 0.0 0.5 0.0 21 G M
      output band_mulliken 0.0 0.5 0.0 0.3333 0.3333 0.0 21 M K
      output band_mulliken 0.3333 0.3333 0.0 0.0 0.0 0.0 21 K G
      output band_mulliken 0.0 0.0 0.0 -0.3333 -0.3333 0.0 21 G Kp

  #  Output options:
  # k-path through which the band structure is calculated and plotted using the below setting
  #  output band kstart1 kstart1 kstart2 kstart3 kend1 kend2 kend3 n_points name_start name_end
      exx_band_structure_version 1



    #
    #  RI_method LVL_fast
    #  For relaxation:
    #
  #    relax_geometry bfgs 5.e-3
  #    relax_unit_cell full
  #    sc_accuracy_forces  5E-4

  #
    #  Output options:
    #  pdos
      output dos -20 20 1000 0.01
  #    output species_proj_dos -20 20 1000 0.01
      output atom_proj_dos -20 20 1000 0.01

  # linear response calculations
  # The momentum matrix elements in the energy window [ VBM-(omega_max + 10.0 eV),
  # CBM+(omega_max + 10.0 eV)] (in eV) relative to the internal zero will be summed
  #   compute_dielectric omega_max n_omega
  #
      compute_dielectric   10.0  1000
  #    output dielectric  lorentzian 0.05   x  x
      output dielectric  gaussian   0.05   x  x

  #    output dielectric  lorentzian 0.05   y  y
      output dielectric  gaussian   0.05   y  y

  #    output dielectric  lorentzian 0.05   z  z
      output dielectric  gaussian   0.05   z  z


      compute_absorption 0.1 -20 20 0.005 10.0 1000 x .true.
      compute_absorption 0.1 -20 20 0.005 10.0 1000 y .true.
      compute_absorption 0.1 -20 30 0.005 10.0 1000 z .true.
  #
    #  High-symmetry k-points for fcc band structure output, if requested.
    #
    #  output l_proj_dos -20 30 1000 0.3
    #  output band  0.25  0.50  0.75  0.5   0.5   0.5   100	W      L
    #  output band  0.5   0.5   0.5   0.25  0.25  0.25  100	L      Lambda
    #  output band  0.25  0.25  0.25  0     0     0     100	Lambda Gamma
    #  output band  0     0       0   0.00  0.25  0.25  100	Gamma  Delta
    #  output band  0.00  0.25  0.25  0     0.5   0.5   100	Delta  X
    #  output band  0     0.5   0.5   0.125 0.5   0.625 100	X      Z
    #  output band  0.125 0.5   0.625 0.25  0.50  0.75  100	Z      W
    #  output band  0.25  0.50  0.75  0.375 0.375 0.75  100	W      K
  ################################################################################
  #
  #  FHI-aims code project
  # Volker Blum, Fritz Haber Institute Berlin, 2009
  #
  #  Suggested "tight" defaults for Mo atom (to be pasted into control.in file)
  #
  ################################################################################
    species        Mo
  #     global species definitions
      nucleus             42
      mass                95.94
  #
      l_hartree           6
  #
      cut_pot             4.0  2.0  1.0
      basis_dep_cutoff    1e-4
  #
      radial_base         59 7.0
      radial_multiplier   2
      angular_grids specified
        division   0.3117   50
        division   0.6750  110
        division   1.0351  194
        division   1.2073  302
        division   1.6402  434
  #      division   1.9185  590
  #      division   2.0237  770
  #      division   2.0980  974
  #      division   2.7972 1202
  #      outer_grid  974
        outer_grid  434
  ################################################################################
  #
  #  Definition of "minimal" basis
  #
  ################################################################################
  #     valence basis states
      valence      5  s   1.
      valence      4  p   6.
      valence      4  d   5.
  #     ion occupancy
      ion_occ     5  s   0.
      ion_occ     4  p   6.
      ion_occ     4  d   4.
  ################################################################################
  #
  #  Suggested additional basis functions. For production calculations,
  #  uncomment them one after another (the most important basis functions are
  #  listed first).
  #
  #  Constructed for dimers: 1.675 A, 1.9 A, 2.375 A, 3.00 A, 4.00 A
  #
  ################################################################################
  #  "First tier"  - max. impr. -711.23  meV, min. impr. -21.07 meV
       hydro 4 f 8.4
       hydro 3 d 2.8
       ionic 5 p auto
       hydro 5 g 12
       ionic 5 s auto
  #  "Second tier" - max. impr. -39.38  meV, min. impr. -2.68 meV
  #     hydro 4 f 12.4
  #     hydro 3 d 3.3
  #     hydro 6 h 17.2
  #     hydro 4 f 7.6
  #     hydro 3 p 3.0
  #     hydro 1 s 0.65
  #  "Third tier"  - max. impr. -5.50 meV, min. impr. -0.47 meV
  #     hydro 4 f 29.2
  #     hydro 5 g 11.2
  #     hydro 3 d 6.8
  #     hydro 6 h 14.8
  #     hydro 2 p 2.3
  #     hydro 4 s 3.8
  #  "Fourth tier"  - max. impr. -0.58 meV, min. impr. -0.19 meV
  #     hydro 5 f 6.8
  #     hydro 5 d 14.8
  #     hydro 6 s 7.8
  #     hydro 5 g 20.8
  #     hydro 5 d 10.4
  #     hydro 5 p 9.8
  #  Further functions - -0.17 meV and below
  #     hydro 5 d 3.2
  ################################################################################
  #
  #  FHI-aims code project
  # Volker Blum, Fritz Haber Institute Berlin, 2009
  #
  #  Suggested "tight" defaults for Se atom (to be pasted into control.in file)
  #
  ################################################################################
    species        Se
  #     global species definitions
      nucleus             34
      mass                78.96
  #
      l_hartree           6
  #
      cut_pot             4.0          2.0  1.0
      basis_dep_cutoff    1e-4
  #
      radial_base         55 7.0
      radial_multiplier   2
      angular_grids       specified
        division   0.0830  110
        division   0.1357  194
        division   0.7377  302
        division   0.8610  434
  #      division   0.9640  590
  #      division   1.0773  770
  #      division   2.5539  974
  #      outer_grid  974
        outer_grid  434
  ################################################################################
  #
  #  Definition of "minimal" basis
  #
  ################################################################################
  #     valence basis states
      valence      4  s   2.
      valence      4  p   4.
      valence      3  d  10.
  #     ion occupancy
      ion_occ      4  s   1.
      ion_occ      4  p   3.
      ion_occ      3  d  10.
  ################################################################################
  #
  #  Suggested additional basis functions. For production calculations,
  #  uncomment them one after another (the most important basis functions are
  #  listed first).
  #
  #  Constructed for dimers: 1.85 A, 2.15 A, 2.50 A, 3.00 A, 4.00 A
  #
  ################################################################################
  #  "First tier" - improvements: -336.21 meV to -36.85 meV
       hydro 3 d 4.3
       hydro 2 p 1.6
       hydro 4 f 7.2
       ionic 4 s auto
  #  "Second tier" - improvements: -14.39 meV to -1.49 meV
  #     hydro 5 g 10.4
  #     hydro 4 p 4.5
  #     hydro 4 d 6.2
  #     hydro 4 f 11.2
  #     hydro 1 s 0.65
  #     hydro 6 h 15.2
  #  Third tier - improvements: -0.46 meV and below
  #     hydro 5 g 14.4
  #     ionic 4 d auto
  #     hydro 4 f 22.4
  #     hydro 5 f 7.4
  #     hydro 5 p 8
  #     hydro 5 s 9.4
  #  Fourth tier - improvements: -0.12 meV and below
  #     hydro 5 d 11.6
  #     hydro 6 h 18
  #     hydro 4 p 4
  #     hydro 5 f 16
  #     hydro 4 s 3.9
  ################################################################################
  #
  #  FHI-aims code project
  # Volker Blum, Fritz Haber Institute Berlin, 2009
  #
  #  Suggested "tight" defaults for S atom (to be pasted into control.in file)
  #
  #  Revised Jan 04, 2011, following tests (SiC) done by Lydia Nemec:
  #     d and g functions of tier 2 now enabled by default.
  #
  ################################################################################
    species        S
  #     global species definitions
      nucleus             16
      mass                32.065
  #
      l_hartree           6
  #
      cut_pot             4.0          2.0  1.0
      basis_dep_cutoff    1e-4
  #
      radial_base         44 7.0
      radial_multiplier   2
      angular_grids       specified
        division   0.4665  110
        division   0.5810  194
        division   0.7139  302
        division   0.8274  434
  #      division   0.9105  590
  #      division   1.0975  770
  #      division   1.2028  974
  #      outer_grid  974
        outer_grid  434
  ################################################################################
  #
  #  Definition of "minimal" basis
  #
  ################################################################################
  #     valence basis states
      valence      3  s   2.
      valence      3  p   4.
  #     ion occupancy
      ion_occ      3  s   1.
      ion_occ      3  p   3.
  ################################################################################
  #
  #  Suggested additional basis functions. For production calculations,
  #  uncomment them one after another (the most important basis functions are
  #  listed first).
  #
  #  Constructed for dimers: 1.6 A, 1.9 A, 2.5 A, 3.25 A, 4.0 A
  #
  ################################################################################
  #  "First tier" - improvements: -652.81 meV to -45.53 meV
       ionic 3 d auto
       hydro 2 p 1.8
       hydro 4 f 7
       ionic 3 s auto
  #  "Second tier" - improvements: -30.20 meV to -1.74 meV
       hydro 4 d 6.2
       hydro 5 g 10.8
  #     hydro 4 p 4.9
  #     hydro 5 f 10
  #     hydro 1 s 0.8
  #  "Third tier" - improvements: -1.04 meV to -0.20 meV
  #     hydro 3 d 3.9
  #     hydro 3 d 2.7
  #     hydro 5 g 12
  #     hydro 4 p 10.4
  #     hydro 5 f 12.4
  #     hydro 2 s 1.9
  #  "Fourth tier" - improvements: -0.35 meV to -0.06 meV
  #     hydro 4 d 10.4
  #     hydro 4 p 7.2
  #     hydro 4 d 10
  #     hydro 5 g 19.2
  #     hydro 4 s 12

  ################################################################################
  #
  # For methods that use the localized form of the "resolution of identity" for
  # the two-electron Coulomb operator (RI_method LVL), particularly Hartree-Fock and
  # hybrid density functional calculations, the highest accuracy can be obtained by
  # uncommenting the line beginning with "for_aux"  below, thus adding an extra g radial
  # function to the construction of the product basis set for the expansion.
  # See Ref. New J. Phys. 17, 093020 (2015) for more information, particularly Figs. 1 and 6.
  #
  ################################################################################
  #
  # for_aux hydro 5 g 6.0
  ################################################################################
  #
  #  FHI-aims code project
  #  Volker Blum, Fritz Haber Institute Berlin, 2009
  #
  #  Suggested "tight" defaults for W atom (to be pasted into control.in file)
  #
  ################################################################################
    species          W
  #     global species definitions
      nucleus        74
      mass           183.84
  #
      l_hartree      6
  #
      cut_pot        4.0  2.0  1.0
      basis_dep_cutoff    1e-4
  #
      radial_base    71  7.0
      radial_multiplier  2
      angular_grids specified
        division   0.2901   50
        division   0.6986  110
        division   1.0528  194
        division   1.2659  302
        division   1.5223  434
  #      division   1.8111  590
  #      division   2.0105  770
  #      division   2.0413  974
  #      division   2.8804 1202
  #      outer_grid  974
        outer_grid  434
  ################################################################################
  #
  #  Definition of "minimal" basis
  #
  ################################################################################
  #     valence basis states
      valence      6  s   2.
      valence      5  p   6.
      valence      5  d   4.
      valence      4  f  14.
  #     ion occupancy
      ion_occ      6  s   1.
      ion_occ      5  p   6.
      ion_occ      5  d   3.
      ion_occ      4  f  14.
  ################################################################################
  #
  #  Suggested additional basis functions. For production calculations,
  #  uncomment them one after another (the most important basis functions are
  #  listed first).
  #
  #  Constructed for dimers: 1.775, 1.99, 2.50, 3.25, 4.50 AA
  #
  ################################################################################
  #
  #  "First tier" - improvements: -603.77 meV to -28.99 meV
       hydro 4 f 7.8
       hydro 4 d 5.8
       ionic 6 p auto
       hydro 5 g 12.4
       ionic 6 s auto
  #  "Second tier" - improvements: -28.30 meV to -1.31 meV
  #     hydro 6 h 16.8
  #     ionic 5 d auto
  #     hydro 4 f 8.6
  #     hydro 5 g 16.8
  #     hydro 5 d 8.4
  #     hydro 3 p 3.3
  #     hydro 1 s 0.55
  #  "Third tier" - max. impr. -1.79 meV, min. impr. -0.26 meV
  #     hydro 5 f 10.8
  #     hydro 5 g 34.4
  #     hydro 6 h 20.8
  #     hydro 5 g 12.8
  #     hydro 2 p 1.6
  #     hydro 4 s 4.7
  #     hydro 6 d 18.4
  #  "Fourth tier" -0.46 max. impr. - meV, min. impr. -0.09 meV
  #     hydro 6 h 21.6
  #     hydro 5 f 22.4
  #     hydro 4 f 4
  #     hydro 5 p 9.6
  #     hydro 6 d 17.2
  #     hydro 3 p 5.2
  #     hydro 5 g 4.7
  #     hydro 6 s 7.6

  ################################################################################
  #
  #  FHI-aims code project
  #  Volker Blum, Fritz Haber Institute Berlin, 2009
  #
  #  Suggested "tight" defaults for Te atom (to be pasted into control.in file)
  #
  #  2020/09/15 Added g function to "tight" settings, since this creates truly "tight"
  #             but not overly tight defaults. See "intermediate" settings for the past
  #             "tight" settings, which are still very reliable. Consider "intermediate"
  #             for hybrid functionals, for example.
  #
  ################################################################################
    species        Te
  #     global species definitions
      nucleus             52
      mass                127.60
  #
      l_hartree           6
  #
      cut_pot             4.0  2.0  1.0
      basis_dep_cutoff    1e-4
  #
      radial_base         64 7.0
      radial_multiplier   2
      angular_grids specified
        division   0.1259  110
        division   0.8959  194
        division   0.9864  302
        division   1.1196  434
  #      division   1.1922  590
  #      division   1.3098  770
  #      division   2.9404  974
  #      outer_grid  974
        outer_grid  434
  ################################################################################
  #
  #  Definition of "minimal" basis
  #
  ################################################################################
  #     valence basis states
      valence      5  s   2.
      valence      5  p   4.
      valence      4  d  10.
  #     ion occupancy
      ion_occ     5  s   1.
      ion_occ     5  p   3.
      ion_occ     4  d  10.
  ################################################################################
  #
  #  Suggested additional basis functions. For production calculations,
  #  uncomment them one after another (the most important basis functions are
  #  listed first).
  #
  #  Constructed for dimers: 2.15 A, 2.55 A, 3.10 A, 3.60 A, 4.50 A
  #
  ################################################################################
  #  "First tier" - max. impr. -217.34  meV, min. impr. -22.97 meV
       hydro 3 d 3.7
       hydro 4 f 6
       hydro 3 p 2.7
       ionic 5 s auto
  #  "Second tier" - max. impr. -17.80 meV, min. impr. -0.57 meV
       hydro 5 g 9
  #     hydro 4 f 16.4
  #     hydro 6 h 12
  #     hydro 4 p 6.4
  #     hydro 5 f 32.4
  #     hydro 4 d 5
  #     hydro 3 s 2.8
  #  "Third tier" - max. impr. -0.51 meV, min. impr. -0.06 meV
  #     hydro 5 f 8.4
  #     hydro 5 g 11.6
  #     hydro 6 h 15.6
  #     hydro 2 p 1.7
  #     hydro 4 d 9.6
  #     hydro 1 s 6.4
  #  Further functions that fell out of the optimization: -0.17 meV and below
  #     hydro 4 f 33.6
  #     hydro 5 d 6.8
  #     hydro 5 f 16


  -----------------------------------------------------------------------
  Completed first pass over input file control.in .
  -----------------------------------------------------------------------


  -----------------------------------------------------------------------
  Parsing geometry.in (first pass over file, find array dimensions only).
  The contents of geometry.in will be repeated verbatim below
  unless switched off by setting 'verbatim_writeout .false.' .
  in the first line of geometry.in .
  -----------------------------------------------------------------------

  #
  # This is the geometry file that corresponds to the current relaxation step.
  # If you do not want this file to be written, set the "write_restart_geometry" flag to .false.
  #  aims_uuid : 30F25284-AA5C-43EF-ACEA-2542C5DCBEDB
  #
    set_vacuum_level        21.961371
  lattice_vector      3.40717493      0.00014206      0.00000000
  lattice_vector     -1.70378822      2.95054058      0.00000000
  lattice_vector      0.00013496      0.00027045     30.69261765
  atom       0.02071770      0.02091759      2.79151492 Mo
  atom      -0.02140986     -0.01576611     10.18168839 W
  atom       0.02054554      1.98843192      1.16989135 Se
  atom       0.02081213      1.98757349      4.66407853 Te
  atom      -0.02140973      1.95099156      8.55192704 Se
  atom      -0.02178102      1.95181653     12.06464594 Te


  -----------------------------------------------------------------------
  Completed first pass over input file geometry.in .
  -----------------------------------------------------------------------


  Basic array size parameters:
  | Number of species                 :        5
  | Number of atoms                   :        6
  | Number of lattice vectors         :        3
  | Max. basis fn. angular momentum   :        4
  | Max. atomic/ionic basis occupied n:        6
  | Max. number of basis fn. types    :        3
  | Max. radial fns per species/type  :       14
  | Max. logarithmic grid size        :     1483
  | Max. radial integration grid size :      143
  | Max. angular integration grid size:      434
  | Max. angular grid division number :        8
  | Radial grid for Hartree potential :     1483
  | Number of spin channels           :        1

------------------------------------------------------------
          Reading file control.in.
------------------------------------------------------------

  XC: Using HSE-functional with OMEGA =  0.110000E+00 <units>.
  XC: For the actual units (bohr^-1 or Angstrom^-1), see below.
  hse_unit: Unit for the HSE06 hybrid functional screening parameter set to bohr^(-1).
  Charge =   0.000000E+00: Neutral system requested explicitly.
  Spin treatment: No spin polarisation.
  Scalar relativistic treatment of kinetic energy: on-site free-atom approximation to ZORA.
  Calculating non-self-consistent second-variational spin-orbit coupling after scf-cycle
  Using dipole correction.
Evaluating the work function.
  Occupation type: Gaussian broadening, width =   0.100000E-01 eV.
  Using pulay charge density mixing.
  Pulay mixing - number of memorized iterations:    6
  Charge density mixing - mixing parameter:     0.1000
  Number of initial iterations with linear charge density mixing:    10
  Charge density mixing parameter for initial linear mixing:  0.50000E-01
  Convergence accuracy of self-consistent charge density:  0.1000E-02
  Convergence accuracy of sum of eigenvalues:  0.1000E-01
  Convergence accuracy of total energy:  0.1000E-04
  Maximum number of s.-c. iterations  :   200
  Found k-point grid:        25        25         1

  Plot band    1
  | begin  0.000000  0.000000  0.000000
  | end    0.000000  0.500000  0.000000
  | number of points:   21

  Plot band    2
  | begin  0.000000  0.500000  0.000000
  | end    0.333300  0.333300  0.000000
  | number of points:   21

  Plot band    3
  | begin  0.333300  0.333300  0.000000
  | end    0.000000  0.000000  0.000000
  | number of points:   21

  Plot band    4
  | begin  0.000000  0.000000  0.000000
  | end   -0.333300 -0.333300  0.000000
  | number of points:   21
  Mulliken analysis of all k points in band will be performed

  Plot band    5
  | begin  0.000000  0.000000  0.000000
  | end    0.000000  0.500000  0.000000
  | number of points:   21
  Mulliken analysis of all k points in band will be performed

  Plot band    6
  | begin  0.000000  0.500000  0.000000
  | end    0.333300  0.333300  0.000000
  | number of points:   21
  Mulliken analysis of all k points in band will be performed

  Plot band    7
  | begin  0.333300  0.333300  0.000000
  | end    0.000000  0.000000  0.000000
  | number of points:   21
  Mulliken analysis of all k points in band will be performed

  Plot band    8
  | begin  0.000000  0.000000  0.000000
  | end   -0.333300 -0.333300  0.000000
  | number of points:   21
  Calculating density of states with
  | energy interval :-20.000000 20.000000
  | points & broadening :  1000  0.010000
  Calculating atom-projected density of states with
  | energy interval :-20.000000 20.000000
  | points & broadening :  1000  0.010000
  Compute Momentum Matrix.

  Plot dielectric direction    1

  Plot dielectric direction    2

  Plot dielectric direction    3
  Compute Absorption.
  Compute Absorption.
  Compute Absorption.

  Reading configuration options for species Mo                  .
  | Found nuclear charge :  42.0000
  | Found atomic mass :    95.9400000000000      amu
  | Found l_max for Hartree potential  :   6
  | Found cutoff potl. onset [A], width [A], scale factor :    4.00000    2.00000    1.00000
  | Threshold for basis-dependent cutoff potential is   0.100000E-03
  | Found data for basic radial integration grid :    59 points, outermost radius =    7.000 A
  | Found multiplier for basic radial grid :   2
  | Found angular grid specification: user-specified.
  | Specified grid contains     6 separate shells.
  | Check grid settings after all constraints further below.
  | Found free-atom valence shell :  5 s   1.000
  | Found free-atom valence shell :  4 p   6.000
  | Found free-atom valence shell :  4 d   5.000
  | Found free-ion valence shell :  5 s   0.000
  | Found free-ion valence shell :  4 p   6.000
  | Found free-ion valence shell :  4 d   4.000
  | Found hydrogenic basis function :  4 f   8.400
  | Found hydrogenic basis function :  3 d   2.800
  | Found ionic basis function :  5 p , default cutoff radius.
  | Found hydrogenic basis function :  5 g  12.000
  | Found ionic basis function :  5 s , default cutoff radius.
  Species Mo                  : Missing cutoff potential type.
  Defaulting to exp(1/x)/(1-x)^2 type cutoff potential.
  Species Mo: No 'logarithmic' tag. Using default grid for free atom:
  | Default logarithmic grid data [bohr] : 0.1000E-03 0.1000E+03 0.1012E+01
  | Will include ionic basis functions of  2.0-fold positive Mo                   ion.
  Species Mo: On-site basis accuracy parameter (for Gram-Schmidt orthonormalisation) not specified.
  Using default value basis_acc =  0.1000000E-03.
  Species Mo                  : Using default innermost maximum threshold i_radial=  2 for radial functions.
  Species Mo                  : Default cutoff onset for free atom density etc. : 0.40000000E+01 AA.
  Species Mo                  : Basic radial grid will be enhanced according to radial_multiplier =   2, to contain   119 grid points.

  Reading configuration options for species Se                  .
  | Found nuclear charge :  34.0000
  | Found atomic mass :    78.9600000000000      amu
  | Found l_max for Hartree potential  :   6
  | Found cutoff potl. onset [A], width [A], scale factor :    4.00000    2.00000    1.00000
  | Threshold for basis-dependent cutoff potential is   0.100000E-03
  | Found data for basic radial integration grid :    55 points, outermost radius =    7.000 A
  | Found multiplier for basic radial grid :   2
  | Found angular grid specification: user-specified.
  | Specified grid contains     5 separate shells.
  | Check grid settings after all constraints further below.
  | Found free-atom valence shell :  4 s   2.000
  | Found free-atom valence shell :  4 p   4.000
  | Found free-atom valence shell :  3 d  10.000
  | Found free-ion valence shell :  4 s   1.000
  | Found free-ion valence shell :  4 p   3.000
  | Found free-ion valence shell :  3 d  10.000
  | Found hydrogenic basis function :  3 d   4.300
  | Found hydrogenic basis function :  2 p   1.600
  | Found hydrogenic basis function :  4 f   7.200
  | Found ionic basis function :  4 s , default cutoff radius.
  Species Se                  : Missing cutoff potential type.
  Defaulting to exp(1/x)/(1-x)^2 type cutoff potential.
  Species Se: No 'logarithmic' tag. Using default grid for free atom:
  | Default logarithmic grid data [bohr] : 0.1000E-03 0.1000E+03 0.1012E+01
  | Will include ionic basis functions of  2.0-fold positive Se                   ion.
  Species Se: On-site basis accuracy parameter (for Gram-Schmidt orthonormalisation) not specified.
  Using default value basis_acc =  0.1000000E-03.
  Species Se                  : Using default innermost maximum threshold i_radial=  2 for radial functions.
  Species Se                  : Default cutoff onset for free atom density etc. : 0.40000000E+01 AA.
  Species Se                  : Basic radial grid will be enhanced according to radial_multiplier =   2, to contain   111 grid points.

  Reading configuration options for species S                   .
  | Found nuclear charge :  16.0000
  | Found atomic mass :    32.0650000000000      amu
  | Found l_max for Hartree potential  :   6
  | Found cutoff potl. onset [A], width [A], scale factor :    4.00000    2.00000    1.00000
  | Threshold for basis-dependent cutoff potential is   0.100000E-03
  | Found data for basic radial integration grid :    44 points, outermost radius =    7.000 A
  | Found multiplier for basic radial grid :   2
  | Found angular grid specification: user-specified.
  | Specified grid contains     5 separate shells.
  | Check grid settings after all constraints further below.
  | Found free-atom valence shell :  3 s   2.000
  | Found free-atom valence shell :  3 p   4.000
  | Found free-ion valence shell :  3 s   1.000
  | Found free-ion valence shell :  3 p   3.000
  | Found ionic basis function :  3 d , default cutoff radius.
  | Found hydrogenic basis function :  2 p   1.800
  | Found hydrogenic basis function :  4 f   7.000
  | Found ionic basis function :  3 s , default cutoff radius.
  | Found hydrogenic basis function :  4 d   6.200
  | Found hydrogenic basis function :  5 g  10.800
  Species S                   : Missing cutoff potential type.
  Defaulting to exp(1/x)/(1-x)^2 type cutoff potential.
  Species S : No 'logarithmic' tag. Using default grid for free atom:
  | Default logarithmic grid data [bohr] : 0.1000E-03 0.1000E+03 0.1012E+01
  | Will include ionic basis functions of  2.0-fold positive S                    ion.
  Species S : On-site basis accuracy parameter (for Gram-Schmidt orthonormalisation) not specified.
  Using default value basis_acc =  0.1000000E-03.
  Species S                   : Using default innermost maximum threshold i_radial=  2 for radial functions.
  Species S                   : Default cutoff onset for free atom density etc. : 0.40000000E+01 AA.
  Species S                   : Basic radial grid will be enhanced according to radial_multiplier =   2, to contain    89 grid points.

  Reading configuration options for species W                   .
  | Found nuclear charge :  74.0000
  | Found atomic mass :    183.840000000000      amu
  | Found l_max for Hartree potential  :   6
  | Found cutoff potl. onset [A], width [A], scale factor :    4.00000    2.00000    1.00000
  | Threshold for basis-dependent cutoff potential is   0.100000E-03
  | Found data for basic radial integration grid :    71 points, outermost radius =    7.000 A
  | Found multiplier for basic radial grid :   2
  | Found angular grid specification: user-specified.
  | Specified grid contains     6 separate shells.
  | Check grid settings after all constraints further below.
  | Found free-atom valence shell :  6 s   2.000
  | Found free-atom valence shell :  5 p   6.000
  | Found free-atom valence shell :  5 d   4.000
  | Found free-atom valence shell :  4 f  14.000
  | Found free-ion valence shell :  6 s   1.000
  | Found free-ion valence shell :  5 p   6.000
  | Found free-ion valence shell :  5 d   3.000
  | Found free-ion valence shell :  4 f  14.000
  | Found hydrogenic basis function :  4 f   7.800
  | Found hydrogenic basis function :  4 d   5.800
  | Found ionic basis function :  6 p , default cutoff radius.
  | Found hydrogenic basis function :  5 g  12.400
  | Found ionic basis function :  6 s , default cutoff radius.
  Species W                   : Missing cutoff potential type.
  Defaulting to exp(1/x)/(1-x)^2 type cutoff potential.
  Species W : No 'logarithmic' tag. Using default grid for free atom:
  | Default logarithmic grid data [bohr] : 0.1000E-03 0.1000E+03 0.1012E+01
  | Will include ionic basis functions of  2.0-fold positive W                    ion.
  Species W : On-site basis accuracy parameter (for Gram-Schmidt orthonormalisation) not specified.
  Using default value basis_acc =  0.1000000E-03.
  Species W                   : Using default innermost maximum threshold i_radial=  2 for radial functions.
  Species W                   : Default cutoff onset for free atom density etc. : 0.40000000E+01 AA.
  Species W                   : Basic radial grid will be enhanced according to radial_multiplier =   2, to contain   143 grid points.

  Reading configuration options for species Te                  .
  | Found nuclear charge :  52.0000
  | Found atomic mass :    127.600000000000      amu
  | Found l_max for Hartree potential  :   6
  | Found cutoff potl. onset [A], width [A], scale factor :    4.00000    2.00000    1.00000
  | Threshold for basis-dependent cutoff potential is   0.100000E-03
  | Found data for basic radial integration grid :    64 points, outermost radius =    7.000 A
  | Found multiplier for basic radial grid :   2
  | Found angular grid specification: user-specified.
  | Specified grid contains     5 separate shells.
  | Check grid settings after all constraints further below.
  | Found free-atom valence shell :  5 s   2.000
  | Found free-atom valence shell :  5 p   4.000
  | Found free-atom valence shell :  4 d  10.000
  | Found free-ion valence shell :  5 s   1.000
  | Found free-ion valence shell :  5 p   3.000
  | Found free-ion valence shell :  4 d  10.000
  | Found hydrogenic basis function :  3 d   3.700
  | Found hydrogenic basis function :  4 f   6.000
  | Found hydrogenic basis function :  3 p   2.700
  | Found ionic basis function :  5 s , default cutoff radius.
  | Found hydrogenic basis function :  5 g   9.000
  Species Te                  : Missing cutoff potential type.
  Defaulting to exp(1/x)/(1-x)^2 type cutoff potential.
  Species Te: No 'logarithmic' tag. Using default grid for free atom:
  | Default logarithmic grid data [bohr] : 0.1000E-03 0.1000E+03 0.1012E+01
  | Will include ionic basis functions of  2.0-fold positive Te                   ion.
  Species Te: On-site basis accuracy parameter (for Gram-Schmidt orthonormalisation) not specified.
  Using default value basis_acc =  0.1000000E-03.
  Species Te                  : Using default innermost maximum threshold i_radial=  2 for radial functions.
  Species Te                  : Default cutoff onset for free atom density etc. : 0.40000000E+01 AA.
  Species Te                  : Basic radial grid will be enhanced according to radial_multiplier =   2, to contain   129 grid points.

  Finished reading input file 'control.in'.

------------------------------------------------------------


------------------------------------------------------------
          Reading geometry description geometry.in.
------------------------------------------------------------
  Vacuum level in z-axis :   0.219614E+02
  | The smallest distance between any two atoms is         2.54917855 AA.
  | The first atom of this pair is atom number                      1 .
  | The second atom of this pair is atom number                     3 .
  | Wigner-Seitz cell of the first atom image           0     0     0 .
  | (The Wigner-Seitz cell of the second atom is 0 0 0  by definition.)

  Symmetry information by spglib:
  | Precision set to  0.1E-04
  | Number of Operations  : 1
  | Space group           : 1
  | International         : P1      /op
  | Schoenflies           : C1^1
  Input structure read successfully.
  The structure contains        6 atoms,  and a total of        288.000 electrons.

  Input geometry:
  | Unit cell:
  |        3.40717493        0.00014206        0.00000000
  |       -1.70378822        2.95054058        0.00000000
  |        0.00013496        0.00027045       30.69261765
  | Atomic structure:
  |       Atom                x [A]            y [A]            z [A]
  |    1: Species Mo            0.02071770        0.02091759        2.79151492
  |    2: Species W            -0.02140986       -0.01576611       10.18168839
  |    3: Species Se            0.02054554        1.98843192        1.16989135
  |    4: Species Te            0.02081213        1.98757349        4.66407853
  |    5: Species Se           -0.02140973        1.95099156        8.55192704
  |    6: Species Te           -0.02178102        1.95181653       12.06464594

  Lattice parameters for 3D lattice (in Angstroms) :     3.407175    3.407137   30.692618
  Angle(s) between unit vectors (in degrees)       :    89.999689   89.999748  120.001876


  Quantities derived from the lattice vectors (in Angstrom^-1):
  | Reciprocal lattice vector 1:  1.844060  1.064851 -0.000017
  | Reciprocal lattice vector 2: -0.000089  2.129452 -0.000019
  | Reciprocal lattice vector 3:  0.000000 -0.000000  0.204713
  | Unit cell volume                               :   0.308561E+03  Angstrom^3

  Fractional coordinates:
                         L1                L2                L3
       atom_frac         0.00961773        0.00708061        0.09095070  Mo
       atom_frac        -0.00898393       -0.00537344        0.33173086  W
       atom_frac         0.34301889        0.67390122        0.03811638  Se
       atom_frac         0.34294192        0.67359984        0.15196092  Te
       atom_frac         0.32433958        0.66119075        0.27863140  Se
       atom_frac         0.32436064        0.66145985        0.39307973  Te


  Finished reading input file 'geometry.in'.



  Consistency checks for stacksize environment parameter are next.

  | Maximum stacksize for task 0: unlimited
  | Maximum stacksize for task 1: unlimited
  | Maximum stacksize for task 2: unlimited
  | Maximum stacksize for task 3: unlimited
  | Maximum stacksize for task 4: unlimited
  | Maximum stacksize for task 5: unlimited
  | Maximum stacksize for task 6: unlimited
  | Maximum stacksize for task 7: unlimited
  | Current stacksize for task 0: unlimited
  | Current stacksize for task 1: unlimited
  | Current stacksize for task 2: unlimited
  | Current stacksize for task 3: unlimited
  | Current stacksize for task 4: unlimited
  | Current stacksize for task 5: unlimited
  | Current stacksize for task 6: unlimited
  | Current stacksize for task 7: unlimited

  Consistency checks for the contents of control.in are next.

  HSE06 screening parameters: omega_HF  =      0.11000000 bohr^-1, and
                              omega_PBE =      0.11000000 bohr^-1.
  MPI_IN_PLACE appears to work with this MPI implementation.
  | Keeping use_mpi_in_place .true. (see manual).
  Explicit treatment of the Coulomb operator is needed, but the RI method is not specified.
  Coulomb operator: Defaulting to 'LVL fast' resolution of identity - RI_type = LVL_fast
  Species Mo: Using default value for prodbas_acc =   1.000000E-04.
  Species Mo: Using default value max_l_prodbas =    20.
  Species Se: Using default value for prodbas_acc =   1.000000E-04.
  Species Se: Using default value max_l_prodbas =    20.
  Species S: Using default value for prodbas_acc =   1.000000E-04.
  Species S: Using default value max_l_prodbas =    20.
  Species W: Using default value for prodbas_acc =   1.000000E-04.
  Species W: Using default value max_l_prodbas =    20.
  Species Te: Using default value for prodbas_acc =   1.000000E-04.
  Species Te: Using default value max_l_prodbas =    20.
  Target number of points in a grid batch is not set. Defaulting to  100
  Method for grid partitioning is not set. Defaulting to parallel hash+maxmin partitioning.
  Batch size limit is not set. Defaulting to    200
  By default, will store active basis functions for each batch.
  If in need of memory, prune_basis_once .false. can be used to disable this option.
  communication_type for Hartree potential was not specified.
  Defaulting to calc_hartree .
  Work space size for distributed Hartree potential not set.
  Defaulting to   0.200000E+03 MB.
  Algorithm-dependent basis array size parameters:
  | n_max_pulay                         :        6
  Presetting      1001 iterations before the initial mixing cycle
  is restarted anyway using the sc_init_iter criterion / keyword.
  Presetting a factor      1.000 between actual scf density residual
  and density convergence criterion sc_accuracy_rho below which sc_init_iter
  takes no effect.
  Calculation of forces was not defined in control.in. No forces will be calculated.
  Geometry relaxation not requested: no relaxation will be performed.
  No accuracy limit for integral partition fn. given. Defaulting to  0.1000E-14.
  No threshold value for u(r) in integrations given. Defaulting to  0.1000E-05.
  No accuracy for occupation numbers given. Defaulting to  0.1000E-12.
  No threshold value for occupation numbers given. Defaulting to  0.0000E+00.
  No accuracy for fermi level given. Defaulting to  0.1000E-19.
  Maximum # of iterations to find E_F not set. Defaulting to  200.
  Preferred method for the eigenvalue solver ('KS_method') not specified in 'control.in'.
  Defaulting to serial version, LAPACK (via ELSI), since more k-points than CPUs available.
  Will not use alltoall communication since running on < 1024 CPUs.
  Threshold for basis singularities not set.
  Default threshold for basis singularities:  0.1000E-04
  partition_type (choice of integration weights) for integrals was not specified.
  | Using a version of the partition function of Stratmann and coworkers ('stratmann_sparse').
  | At each grid point, the set of atoms used to build the partition table is smoothly restricted to
  | only those atoms whose free-atom density would be non-zero at that grid point.
  Partitioning for Hartree potential was not defined. Using partition_type for integrals.
  | Adjusted default value of keyword multip_moments_threshold to:       0.10000000E-11
  | This value may affect high angular momentum components of the Hartree potential in periodic systems.
  Threshold for auxiliary basis singularities not set.
  Default threshold for auxiliary basis singularities:  0.1000E-04
  No q(lm)/r^(l+1) cutoff set for long-range Hartree potential.
  | Using default value of  0.100000E-09 .
  | Verify using the multipole_threshold keyword.
  Defaulting to new monopole extrapolation.
  Density update method: automatic selection selected.
  Using density matrix based charge density update.
  Using density matrix based charge density update.
  Using packed matrix style: index .
 * NOTE: You are attempting to run a periodic structure with an exchange treatment
 * which requires a two-electron Coulomb operator (Hartree-Fock or a hybrid functional).
 * The present implementation is reliable to our knowledge, but some things
 * (like band structure output, or perhaps the auxilary basis set for small
 * orbital basis sets - see the "for_aux" keyword) require extra care.
 * Please let us know if you encounter any trouble.
  Coulomb operator: Defaulting to screening threshold for four-center integrals:   0.100000E-06
  Coulomb operator: Defaulting to screening threshold for Coulomb matrix:   0.100000E-09
  Fock matrix calculation: Setting the screening threshold for overlap matrix to coul_mat_threshold:   0.100000E-09
  Coulomb operator: Defaulting to 'LVL_fast' resolution of identity - RI_type = LVL_fast
  No other resolution of identity version is supported for periodic boundary conditions at present.
  Coulomb operator: Defaulting to logarithmic spherical Bessel transform integrals (use_logsbt .true.).
  HSE with LVL_fast: Also defaulting to logarithmic spherical Bessel transform integrals.
  Defaulting to use time-reversal symmetry for k-point grid.
  Charge integration errors on the 3D integration grid will be compensated
  by explicit normalization and distribution of residual charges.
  Use the "compensate_multipole_errors" flag to change this behaviour.
  LVL not implemented with density matrix yet
  -> switching to transformed overlap
  LVL probably works better with logsbt
  Default to 1D ("use_logsbt") integrations for auxiliary 2-center integrals.
  Default onset of logarithmic r-grid for SBT is -38.000000000000
  Default onset of logarithmic k-grid for SBT is -25.000000000000
  Default range of logarithmic r- and k-grid for SBT is  45.000000000000
  Default number of logarithmic r- and k-grid for SBT is   4096
  * Use logSBT for radial HSE integration, too
 * NOTE: Band structure and exact exchange are requested at the same time,
 * and exx_band_structure_version is set to 1.
 * exx_band_structure_version 1 is evaluated in a real-space formalism. It is fast
 * and the preferred version. HOWEVER, it does require a sufficiently
 * dense 'k_grid' to be used for the preceding s.c.f. cycle.
 * If the 'k_grid used for s.c.f. is NOT dense enough, the real-
 * space approach will produce bands that are OBVIOUSLY incorrect.
 * You cannot miss this - they won't look 'slightly' correct. In
 * that case, please try to increase the 'k_grid' parameters used
 * for the s.c.f. cycle. In particular, please avoid k_grid dimensions
 * of '1' (one) in any dimension. We apologize for this inconvenience.
 * On the bright side, if you use exx_band_structure_version 1
 * correctly, it will give reliable results without much overhead.
 *
 * If your band structure does not look reasonable, increase the s.c.f. k-point
 * grid density. Again, it is especially recommended that you avoid dimensions of 1 when
 * specifying k_grid and using this option, even for large unit cells where a
 * gamma-point-only k-grid would be sufficient to converge the accuracy of the
 * calculation.
 *
 * Please test (e.g., by comparing results from different k_grid settings) when in any doubt.
  Using the following vdw_convergence_threshold for supercell sums
  over the Tkatchenko-Scheffler correction:  0.100000E-05 eV.
  Set 'collect_eigenvectors' to be '.true.' for all serial calculations. This is mandatory.
  Set 'collect_eigenvectors' to be '.true.' for KS_method lapack_fast and serial.

  Consistency checks for the contents of geometry.in are next.


  Range separation radius for Ewald summation (hartree_convergence_parameter):      5.00000000 bohr.
  Number of empty states per atom not set in control.in - providing a guess from actual geometry.
  | Total number of empty states used during s.c.f. cycle:       37
  If you use a very high smearing, use empty_states (per atom!) in control.in to increase this value.
  * Since a dielectric function calculation was requested, the number of empty states requested was INCREASED.
  * Since a DOS, bandstructure or SOC calculation was requested, the number of empty states requested was INCREASED.
  | Number of empty states (old):  373.00000
  | Number of empty states (new):  383.00000

  Structure-dependent array size parameters:
  | Maximum number of distinct radial functions  :       73
  | Maximum number of basis functions            :      286
  | Number of Kohn-Sham states (occupied + empty):      336
------------------------------------------------------------
  Setting Coulomb cut-width to  1.091868692359 * rcut.
  Setting Coulomb cutting radius rcut to 15.346308825744 A.

  Performing system and environment tests:
  | Environment variable OMP_NUM_THREADS correctly set to 1.
  | Checking for ScaLAPACK...
  | Testing pdtran()...
  | All pdtran() tests passed.
  | Testing pzgemm()...
  | All pzgemm() tests passed.

------------------------------------------------------------
          Preparing all fixed parts of the calculation.
------------------------------------------------------------
  Determining machine precision:
    2.225073858507201E-308
  Setting up grids for atomic and cluster calculations.

  Creating wave function, potential, and density for free atoms.
  Runtime choices for atomic solver:
  | atomic solver xc        : PBE
  | compute density gradient: 1
  | compute kinetic density : F

  Species: Mo

  List of occupied orbitals and eigenvalues:
    n    l              occ      energy [Ha]    energy [eV]
    1    0           2.0000      -745.344654    -20281.8600
    2    0           2.0000      -103.288246     -2810.6162
    3    0           2.0000       -17.516687      -476.6533
    4    0           2.0000        -2.358559       -64.1796
    5    0           1.0000        -0.145159        -3.9500
    2    1           6.0000       -92.308627     -2511.8455
    3    1           6.0000       -13.936005      -379.2180
    4    1           6.0000        -1.408138       -38.3174
    3    2          10.0000        -8.119011      -220.9295
    4    2           5.0000        -0.132984        -3.6187


  Species: Se

  List of occupied orbitals and eigenvalues:
    n    l              occ      energy [Ha]    energy [eV]
    1    0           2.0000      -466.337810    -12689.6975
    2    0           2.0000       -59.202598     -1610.9847
    3    0           2.0000        -7.847116      -213.5309
    4    0           2.0000        -0.634372       -17.2621
    2    1           6.0000       -52.061107     -1416.6548
    3    1           6.0000        -5.620941      -152.9536
    4    1           4.0000        -0.238469        -6.4891
    3    2          10.0000        -1.951949       -53.1152


  Species: S

  List of occupied orbitals and eigenvalues:
    n    l              occ      energy [Ha]    energy [eV]
    1    0           2.0000       -88.680731     -2413.1255
    2    0           2.0000        -7.781719      -211.7513
    3    0           2.0000        -0.633662       -17.2428
    2    1           6.0000        -5.751976      -156.5192
    3    1           4.0000        -0.257086        -6.9957


  Species: W

  List of occupied orbitals and eigenvalues:
    n    l              occ      energy [Ha]    energy [eV]
    1    0           2.0000     -2764.899999    -75236.7570
    2    0           2.0000      -447.822848    -12185.8797
    3    0           2.0000      -101.923634     -2773.4832
    4    0           2.0000       -20.945301      -569.9506
    5    0           2.0000        -2.899582       -78.9016
    6    0           2.0000        -0.207066        -5.6345
    2    1           6.0000      -391.021390    -10640.2334
    3    1           6.0000       -85.417793     -2324.3364
    4    1           6.0000       -15.562838      -423.4864
    5    1           6.0000        -1.582233       -43.0547
    3    2          10.0000       -66.517936     -1810.0451
    4    2          10.0000        -8.758436      -238.3292
    5    2           4.0000        -0.161873        -4.4048
    4    3          14.0000        -1.221948       -33.2509


  Species: Te

  List of occupied orbitals and eigenvalues:
    n    l              occ      energy [Ha]    energy [eV]
    1    0           2.0000     -1205.196269    -32795.0591
    2    0           2.0000      -179.435283     -4882.6825
    3    0           2.0000       -35.515934      -966.4377
    4    0           2.0000        -6.038599      -164.3187
    5    0           2.0000        -0.553449       -15.0601
    2    1           6.0000      -160.997293     -4380.9593
    3    1           6.0000       -29.570439      -804.6526
    4    1           6.0000        -4.201054      -114.3165
    5    1           4.0000        -0.217175        -5.9096
    3    2          10.0000       -20.601415      -560.5930
    4    2          10.0000        -1.529160       -41.6105


  Adding cutoff potential to free-atom effective potential.
  Creating fixed part of basis set: Ionic, confined, hydrogenic.

  Mo                   ion:

  List of free ionic orbitals and eigenvalues:
    n    l      energy [Ha]    energy [eV]
    1    0      -746.048685    -20301.0176
    2    0      -103.980912     -2829.4646
    3    0       -18.206601      -495.4268
    4    0        -3.040545       -82.7374
    2    1       -93.001013     -2530.6863
    3    1       -14.625827      -397.9890
    4    1        -2.084855       -56.7318
    3    2        -8.808854      -239.7011
    4    2        -0.765435       -20.8285


  List of ionic basis orbitals and eigenvalues:
    n    l      energy [Ha]    energy [eV]    outer radius [A]
    5    1        -0.465587       -12.6693       5.456393
    5    0        -0.650331       -17.6964       5.390095


  Mo                   hydrogenic:

  List of hydrogenic basis orbitals:
    n    l      effective z      eigenvalue [eV]  inner max. [A]     outer max. [A]     outer radius [A]
    4    3         8.400000       -60.0010           1.009788           1.009788           4.487018
    3    2         2.800000       -11.8048           1.687401           1.687401           5.456393
    5    4        12.000000       -78.3687           1.100005           1.100005           4.432498


  Se                   ion:

  List of free ionic orbitals and eigenvalues:
    n    l      energy [Ha]    energy [eV]
    1    0      -467.261007    -12714.8189
    2    0       -60.104893     -1635.5374
    3    0        -8.743714      -237.9286
    4    0        -1.414053       -38.4783
    2    1       -52.964156     -1441.2280
    3    1        -6.516916      -177.3343
    4    1        -0.961869       -26.1738
    3    2        -2.844511       -77.4031


  List of ionic basis orbitals and eigenvalues:
    n    l      energy [Ha]    energy [eV]    outer radius [A]
    4    0        -1.414046       -38.4782       4.083166


  Se                   hydrogenic:

  List of hydrogenic basis orbitals:
    n    l      effective z      eigenvalue [eV]  inner max. [A]     outer max. [A]     outer radius [A]
    3    2         4.300000       -27.9518           1.103845           1.103845           5.278265
    2    1         1.600000        -8.6828           1.326010           1.326010           5.475439
    4    3         7.200000       -44.0822           1.173422           1.173422           4.965294


  S                    ion:

  List of free ionic orbitals and eigenvalues:
    n    l      energy [Ha]    energy [eV]
    1    0       -89.703778     -2440.9640
    2    0        -8.775428      -238.7916
    3    0        -1.470343       -40.0101
    2    1        -6.747660      -183.6132
    3    1        -1.048627       -28.5346


  List of ionic basis orbitals and eigenvalues:
    n    l      energy [Ha]    energy [eV]    outer radius [A]
    3    2        -0.495605       -13.4861       5.386362
    3    0        -1.470336       -40.0099       3.967934


  S                    hydrogenic:

  List of hydrogenic basis orbitals:
    n    l      effective z      eigenvalue [eV]  inner max. [A]     outer max. [A]     outer radius [A]
    2    1         1.800000       -11.0118           1.168531           1.168531           5.452614
    4    3         7.000000       -41.6672           1.212182           1.212182           5.066981
    4    2         6.200000       -32.6848           0.582121           1.814567           5.386362
    5    4        10.800000       -63.4785           1.227092           1.227092           4.766538


  W                    ion:

  List of free ionic orbitals and eigenvalues:
    n    l      energy [Ha]    energy [eV]
    1    0     -2765.664016    -75257.5469
    2    0      -448.543169    -12205.4806
    3    0      -102.635476     -2792.8534
    4    0       -21.655379      -589.2728
    5    0        -3.604872       -98.0936
    6    0        -0.752243       -20.4696
    2    1      -391.740682    -10659.8063
    3    1       -86.129333     -2343.6984
    4    1       -16.272893      -442.8080
    5    1        -2.280103       -62.0448
    3    2       -67.229405     -1829.4052
    4    2        -9.468448      -257.6496
    5    2        -0.806537       -21.9470
    4    3        -1.931058       -52.5468


  List of ionic basis orbitals and eigenvalues:
    n    l      energy [Ha]    energy [eV]    outer radius [A]
    6    1        -0.508246       -13.8301       5.434360
    6    0        -0.752227       -20.4691       5.368330


  W                    hydrogenic:

  List of hydrogenic basis orbitals:
    n    l      effective z      eigenvalue [eV]  inner max. [A]     outer max. [A]     outer radius [A]
    4    3         7.800000       -51.7355           1.082252           1.082252           4.692859
    4    2         5.800000       -28.5979           0.616741           1.946131           5.434360
    5    4        12.400000       -83.6803           1.069102           1.069102           4.307971


  Te                   ion:

  List of free ionic orbitals and eigenvalues:
    n    l      energy [Ha]    energy [eV]
    1    0     -1206.001395    -32816.9677
    2    0      -180.213456     -4903.8576
    3    0       -36.289734      -987.4939
    4    0        -6.806662      -185.2187
    5    0        -1.230780       -33.4912
    2    1      -161.775412     -4402.1329
    3    1       -30.344117      -825.7054
    4    1        -4.968097      -135.1888
    5    1        -0.843350       -22.9487
    3    2       -21.374869      -581.6398
    4    2        -2.290936       -62.3395


  List of ionic basis orbitals and eigenvalues:
    n    l      energy [Ha]    energy [eV]    outer radius [A]
    5    0        -1.230774       -33.4911       4.407087


  Te                   hydrogenic:

  List of hydrogenic basis orbitals:
    n    l      effective z      eigenvalue [eV]  inner max. [A]     outer max. [A]     outer radius [A]
    3    2         3.700000       -20.6934           1.282089           1.282089           5.425112
    4    3         6.000000       -30.6116           1.413813           1.413813           5.359194
    3    1         2.700000       -10.8497           0.586309           2.305482           5.491841
    5    4         9.000000       -44.0820           1.466627           1.466627           5.359194

  Creating atomic-like basis functions for current effective potential.

  Species Mo                  :

  List of atomic basis orbitals and eigenvalues:
    n    l      energy [Ha]    energy [eV]    outer radius [A]
    1    0      -745.344654    -20281.8600       0.247552
    2    0      -103.288246     -2810.6162       0.682864
    3    0       -17.516687      -476.6533       1.626637
    4    0        -2.358559       -64.1796       4.220963
    5    0        -0.145159        -3.9500       5.456393
    2    1       -92.308627     -2511.8455       0.699766
    3    1       -13.936005      -379.2180       1.793761
    4    1        -1.408138       -38.3174       4.828511
    3    2        -8.119011      -220.9295       2.181285
    4    2        -0.132984        -3.6187       5.390095


  Species Se                  :

  List of atomic basis orbitals and eigenvalues:
    n    l      energy [Ha]    energy [eV]    outer radius [A]
    1    0      -466.337810    -12689.6975       0.309561
    2    0       -59.202598     -1610.9847       0.885812
    3    0        -7.847116      -213.5309       2.355489
    4    0        -0.634372       -17.2621       5.214131
    2    1       -52.061107     -1416.6548       0.907737
    3    1        -5.620941      -152.9536       2.694529
    4    1        -0.238469        -6.4891       5.408909
    3    2        -1.951949       -53.1152       4.083166


  Species S                   :

  List of atomic basis orbitals and eigenvalues:
    n    l      energy [Ha]    energy [eV]    outer radius [A]
    1    0       -88.680731     -2413.1255       0.682391
    2    0        -7.781719      -211.7513       2.289014
    3    0        -0.633662       -17.2428       5.256262
    2    1        -5.751976      -156.5192       2.555240
    3    1        -0.257086        -6.9957       5.386362


  Species W                   :

  List of atomic basis orbitals and eigenvalues:
    n    l      energy [Ha]    energy [eV]    outer radius [A]
    1    0     -2764.899999    -75236.7570       0.130566
    2    0      -447.822848    -12185.8797       0.342973
    3    0      -101.923634     -2773.4832       0.722975
    4    0       -20.945301      -569.9506       1.542753
    5    0        -2.899582       -78.9016       3.859132
    6    0        -0.207066        -5.6345       5.434360
    2    1      -391.021390    -10640.2334       0.355785
    3    1       -85.417793     -2324.3364       0.768545
    4    1       -15.562838      -423.4864       1.722184
    5    1        -1.582233       -43.0547       4.750581
    3    2       -66.517936     -1810.0451       0.827037
    4    2        -8.758436      -238.3292       2.172477
    5    2        -0.161873        -4.4048       5.368330
    4    3        -1.221948       -33.2509       4.579510


  Species Te                  :

  List of atomic basis orbitals and eigenvalues:
    n    l      energy [Ha]    energy [eV]    outer radius [A]
    1    0     -1205.196269    -32795.0591       0.195117
    2    0      -179.435283     -4882.6825       0.531683
    3    0       -35.515934      -966.4377       1.176937
    4    0        -6.038599      -164.3187       2.735843
    5    0        -0.553449       -15.0601       5.294077
    2    1      -160.997293     -4380.9593       0.544843
    3    1       -29.570439      -804.6526       1.266511
    4    1        -4.201054      -114.3165       3.168123
    5    1        -0.217175        -5.9096       5.425112
    3    2       -20.601415      -560.5930       1.431203
    4    2        -1.529160       -41.6105       4.627949

  Assembling full basis from fixed parts.
  | Species Mo :   atomic orbital   1 s accepted.
  | Species Mo :   atomic orbital   2 s accepted.
  | Species Mo :   atomic orbital   3 s accepted.
  | Species Mo :   atomic orbital   4 s accepted.
  | Species Mo :    ionic orbital   5 s accepted.
  | Species Mo :   atomic orbital   5 s accepted.
  | Species Mo :   atomic orbital   2 p accepted.
  | Species Mo :   atomic orbital   3 p accepted.
  | Species Mo :   atomic orbital   4 p accepted.
  | Species Mo :    ionic orbital   5 p accepted.
  | Species Mo :   atomic orbital   3 d accepted.
  | Species Mo :   atomic orbital   4 d accepted.
  | Species Mo :    hydro orbital   3 d accepted.
  | Species Mo :    hydro orbital   4 f accepted.
  | Species Mo :    hydro orbital   5 g accepted.
  | Species Se :   atomic orbital   1 s accepted.
  | Species Se :   atomic orbital   2 s accepted.
  | Species Se :   atomic orbital   3 s accepted.
  | Species Se :    ionic orbital   4 s accepted.
  | Species Se :   atomic orbital   4 s accepted.
  | Species Se :   atomic orbital   2 p accepted.
  | Species Se :   atomic orbital   3 p accepted.
  | Species Se :   atomic orbital   4 p accepted.
  | Species Se :    hydro orbital   2 p accepted.
  | Species Se :   atomic orbital   3 d accepted.
  | Species Se :    hydro orbital   3 d accepted.
  | Species Se :    hydro orbital   4 f accepted.
  | Species S :   atomic orbital   1 s accepted.
  | Species S :   atomic orbital   2 s accepted.
  | Species S :    ionic orbital   3 s accepted.
  | Species S :   atomic orbital   3 s accepted.
  | Species S :   atomic orbital   2 p accepted.
  | Species S :   atomic orbital   3 p accepted.
  | Species S :    hydro orbital   2 p accepted.
  | Species S :    ionic orbital   3 d accepted.
  | Species S :    hydro orbital   4 d accepted.
  | Species S :    hydro orbital   4 f accepted.
  | Species S :    hydro orbital   5 g accepted.
  | Species W :   atomic orbital   1 s accepted.
  | Species W :   atomic orbital   2 s accepted.
  | Species W :   atomic orbital   3 s accepted.
  | Species W :   atomic orbital   4 s accepted.
  | Species W :   atomic orbital   5 s accepted.
  | Species W :    ionic orbital   6 s accepted.
  | Species W :   atomic orbital   6 s accepted.
  | Species W :   atomic orbital   2 p accepted.
  | Species W :   atomic orbital   3 p accepted.
  | Species W :   atomic orbital   4 p accepted.
  | Species W :   atomic orbital   5 p accepted.
  | Species W :    ionic orbital   6 p accepted.
  | Species W :   atomic orbital   3 d accepted.
  | Species W :   atomic orbital   4 d accepted.
  | Species W :   atomic orbital   5 d accepted.
  | Species W :    hydro orbital   4 d accepted.
  | Species W :   atomic orbital   4 f accepted.
  | Species W :    hydro orbital   4 f accepted.
  | Species W :    hydro orbital   5 g accepted.
  | Species Te :   atomic orbital   1 s accepted.
  | Species Te :   atomic orbital   2 s accepted.
  | Species Te :   atomic orbital   3 s accepted.
  | Species Te :   atomic orbital   4 s accepted.
  | Species Te :    ionic orbital   5 s accepted.
  | Species Te :   atomic orbital   5 s accepted.
  | Species Te :   atomic orbital   2 p accepted.
  | Species Te :   atomic orbital   3 p accepted.
  | Species Te :   atomic orbital   4 p accepted.
  | Species Te :   atomic orbital   5 p accepted.
  | Species Te :    hydro orbital   3 p accepted.
  | Species Te :   atomic orbital   3 d accepted.
  | Species Te :   atomic orbital   4 d accepted.
  | Species Te :    hydro orbital   3 d accepted.
  | Species Te :    hydro orbital   4 f accepted.
  | Species Te :    hydro orbital   5 g accepted.
  Reducing total number of  Kohn-Sham states to      286.

  Basis size parameters after reduction:
  | Total number of radial functions:       73
  | Total number of basis functions :      286

  Per-task memory consumption for arrays in subroutine allocate_ext:
  |          27.726404MB.
  Testing on-site integration grid accuracy.
  |  Species  Function  <phi|h_atom|phi> (log., in eV)  <phi|h_atom|phi> (rad., in eV)
           1        1             -20281.8599610543             -20281.8584300616
           1        2              -2810.6161812280              -2810.6161551921
           1        3               -476.6533163555               -476.6533136395
           1        4                -64.1796433667                -64.1796426456
           1        5                 -3.3691762756                 -3.3691802887
           1        6                  4.4704608512                  4.4699102345
           1        7              -2511.8455406047              -2511.8455385741
           1        8               -379.2179896350               -379.2179882338
           1        9                -38.3173891619                -38.3173886619
           1       10                  0.2493245095                  0.2492931069
           1       11               -220.9295301098               -220.9295297081
           1       12                 -3.6195697699                 -3.6195754704
           1       13                  7.1428000922                  7.1426882355
           1       14                 23.3975871087                 23.3975871819
           1       15                 50.2449608881                 50.2449608586
           2       16             -12689.6974611609             -12689.6967666984
           2       17              -1610.9846578580              -1610.9846472470
           2       18               -213.5308789869               -213.5308777267
           2       19                -17.0464428502                -17.0464426496
           2       20                  6.7356859379                  6.7356842047
           2       21              -1416.6548010133              -1416.6548002108
           2       22               -152.9535734377               -152.9535727493
           2       23                 -6.4896265677                 -6.4896303794
           2       24                  5.2703037283                  5.2701679583
           2       25                -53.1152220964                -53.1152219035
           2       26                  7.6186674138                  7.6186665630
           2       27                 23.1072799052                 23.1072803137
           3       28              -2413.1254568977              -2413.1254096663
           3       29               -211.7513411281               -211.7513404762
           3       30                -16.9725280787                -16.9725279206
           3       31                  7.6024436204                  7.6024549059
           3       32               -156.5192206929               -156.5192205451
           3       33                 -6.9959757887                 -6.9959777655
           3       34                  6.8896462808                  6.8895564741
           3       35                  6.0214250550                  6.0214220200
           3       36                 19.6206468977                 19.6206494558
           3       37                 24.7008710786                 24.7008710738
           3       38                 47.5292252001                 47.5292260486
           4       39             -75236.7569897398             -75236.7398021816
           4       40             -12185.8796968880             -12185.8793671389
           4       41              -2773.4831911435              -2773.4831624928
           4       42               -569.9506420417               -569.9506363235
           4       43                -78.9016401752                -78.9016385968
           4       44                 -5.1691854984                 -5.1691848358
           4       45                  4.5636857939                  4.5638143912
           4       46             -10640.2333851158             -10640.2333803363
           4       47              -2324.3364165327              -2324.3364072919
           4       48               -423.4863614587               -423.4863574859
           4       49                -43.0547390741                -43.0547381500
           4       50                 -0.2794590886                 -0.2794514857
           4       51              -1810.0451240061              -1810.0451202456
           4       52               -238.3291788477               -238.3291766726
           4       53                 -4.4054312547                 -4.4054293963
           4       54                  8.2928303329                  8.2928369211
           4       55                -33.2508975442                -33.2508971531
           4       56                 21.3563540731                 21.3563541107
           4       57                 49.8060668072                 49.8060668107
           5       58             -32795.0590846455             -32795.0556605232
           5       59              -4882.6824813465              -4882.6824159868
           5       60               -966.4377413866               -966.4377361228
           5       61               -164.3186507888               -164.3186490966
           5       62                -14.8855865446                -14.8855862180
           5       63                  5.2437428292                  5.2437525172
           5       64              -4380.9592556630              -4380.9592506320
           5       65               -804.6525815679               -804.6525796130
           5       66               -114.3164854912               -114.3164843738
           5       67                 -5.9109395843                 -5.9109349312
           5       68                  4.8569390905                  4.8570662328
           5       69               -560.5930245701               -560.5930241259
           5       70                -41.6105488448                -41.6105483746
           5       71                  5.2198476695                  5.2198521163
           5       72                 13.1245618285                 13.1245643331
           5       73                 29.0453900150                 29.0453912086

  Preparing densities etc. for the partition functions (integrals / Hartree potential).

  Preparations completed.
  max(cpu_time)          :      0.991 s.
  Wall clock time (cpu1) :      0.996 s.
------------------------------------------------------------

  Initializing index lists of integration centers etc. from given atomic structure:
  Mapping all atomic coordinates to central unit cell.

  Initializing the k-points
  Using symmetry for reducing the k-points
  | k-points reduced from:      625 to      313
  | Number of k-points                             :       313
  | Consuming       3056 KiB for k_phase_exx.
  The eigenvectors in the calculations are COMPLEX.
  | K-points in task   0:        39
  | K-points in task   1:        40
  | K-points in task   2:        39
  | K-points in task   3:        39
  | K-points in task   4:        39
  | K-points in task   5:        39
  | K-points in task   6:        39
  | K-points in task   7:        39
  | Number of basis functions in the Hamiltonian integrals :      4449
  | Number of basis functions in a single unit cell        :       286
  | Number of centers in hartree potential         :       642
  | Number of centers in hartree multipole         :       342
  | Number of centers in electron density summation:       264
  | Number of centers in basis integrals           :       288
  | Number of centers in integrals                 :       153
  | Number of centers in hamiltonian               :       264
  | Consuming        322 KiB for k_phase.
  | Number of super-cells (origin) [n_cells]                     :        1125
  | Number of super-cells (after PM_index) [n_cells]             :          66
  | Number of super-cells in hamiltonian [n_cells_in_hamiltonian]:          52
  | Size of matrix packed + index [n_hamiltonian_matrix_size] :      631566

------------------------------------------------------------
          Begin self-consistency loop: Initialization.

          Date     :  20230117, Time     :  114552.002
------------------------------------------------------------
  | Estimated reciprocal-space cutoff momentum G_max:         1.90186217 bohr^-1 .
  | Reciprocal lattice points for long-range Hartree potential:     208
  Partitioning the integration grid into batches with parallel hashing+maxmin method.
  | Number of batches:     2360
  | Maximal batch size:     160
  | Minimal batch size:      37
  | Average batch size:      81.776
  | Standard deviation of batch sizes:      24.693

  Integration load balanced across     8 MPI tasks.
  Work distribution over tasks is as follows:
  Task     0 has      24105 integration points.
  Task     1 has      24104 integration points.
  Task     2 has      24156 integration points.
  Task     3 has      24139 integration points.
  Task     4 has      24178 integration points.
  Task     5 has      24118 integration points.
  Task     6 has      24118 integration points.
  Task     7 has      24074 integration points.
  Initializing partition tables, free-atom densities, potentials, etc. across the integration grid (initialize_grid_storage).
  | initialize_grid_storage: Actual outermost partition radius vs. multipole_radius_free
  | (-- VB: in principle, multipole_radius_free should be larger, hence this output)
  | Species        1: Confinement radius =              6.000000000000000 AA, multipole_radius_free =              6.016994434057369 AA.
  | Species        1: outer_partition_radius set to              6.016994434057369 AA .
  | Species        2: Confinement radius =              6.000000000000000 AA, multipole_radius_free =              6.037996416842453 AA.
  | Species        2: outer_partition_radius set to              6.037996416842453 AA .
  | Species        3: Confinement radius =              6.000000000000000 AA, multipole_radius_free =              6.012827091137924 AA.
  | Species        3: outer_partition_radius set to              6.012827091137924 AA .
  | Species        4: Confinement radius =              6.000000000000000 AA, multipole_radius_free =              6.066407844853155 AA.
  | Species        4: outer_partition_radius set to              6.066407844853155 AA .
  | Species        5: Confinement radius =              6.000000000000000 AA, multipole_radius_free =              6.056084577048819 AA.
  | Species        5: outer_partition_radius set to              6.056084577048819 AA .
  | The sparse table of interatomic distances needs        698.55 kbyte instead of       663.55 kbyte of memory.
  | Using the partition_type stratmann_smoother will reduce your memory usage.
  | Net number of integration points:   192992
  | of which are non-zero points    :   163724
  | Numerical average free-atom electrostatic potential    :     -9.05439813 eV
  Renormalizing the initial density to the exact electron count on the 3D integration grid.
  | Initial density: Formal number of electrons (from input files) :     288.0000000000
  | Integrated number of electrons on 3D grid     :     287.9998104340
  | Charge integration error                      :      -0.0001895660
  | Normalization factor for density and gradient :       1.0000006582
  Renormalizing the free-atom superposition density to the exact electron count on the 3D integration grid.
  | Formal number of electrons (from input files) :     288.0000000000
  | Integrated number of electrons on 3D grid     :     287.9998104340
  | Charge integration error                      :      -0.0001895660
  | Normalization factor for density and gradient :       1.0000006582
  Obtaining max. number of non-zero basis functions in each batch (get_n_compute_maxes).
[...]
  | writing   projected DOS (raw data) for species Te to file atom_proj_dos_Te0006_raw.dat.
  Mulliken analysis                                       :  max(cpu_time)    wall_clock(cpu1)
  | Time for Mulliken analysis (scalar relativistic)      :         67.875              69.860
  | Time for Mulliken analysis (spin-orbit coupled)       :        272.921             280.614
  | Total time for Mulliken analysis                      :        340.796             350.474
------------------------------------------------------------
  ------------------------------------------------------------
               Starting Dielectric Calculations
  ------------------------------------------------------------

  Recalculating HOMO and LUMO levels to determine eigenstates needed for dielectric calculations...

  What follows are estimated values for band gap, HOMO, LUMO, etc.
  | They are estimated on a discrete k-point grid and not necessarily exact.
  | For converged numbers, create a DOS and/or band structure plot on a denser k-grid.

  Highest occupied state (VBM) at     -5.40200629 eV (relative to internal zero)
  | Occupation number:      1.00000000
  | K-point:     152 at    0.320000    0.360000    0.000000 (in units of recip. lattice)

  Lowest unoccupied state (CBM) at    -4.20383680 eV (relative to internal zero)
  | Occupation number:      0.00000003
  | K-point:      99 at    0.200000    0.600000    0.000000 (in units of recip. lattice)

  ESTIMATED overall HOMO-LUMO gap:      1.19816948 eV between HOMO at k-point 152 and LUMO at k-point 99
  | This appears to be an indirect band gap.
  | Smallest direct gap :      1.27357279 eV for k_point 151 at    0.320000    0.320000    0.000000 (in units of recip. lattice)
  The gap value is above 0.2 eV. Unless you are using a very sparse k-point grid,
  this system is most likely an insulator or a semiconductor.

  Index of first state to include in dielectric calculations :       253
  Index of last state to include in dielectric calculations  :       378

  Allocating memory for main dielectric-related matrices...
  Allocating        0.000 MB for omega_plasma_sq
  Allocating        0.046 MB for interband_polarizability
  Allocating        0.046 MB for intraband_polarizability
  Allocating        0.046 MB for dielectric
  Allocating        0.023 MB for absorption_coeff
  Allocating        4.818 MB for mommat_full_x_up
  Allocating        4.818 MB for mommat_full_x_low
  Allocating        4.818 MB for mommat_full_y_up
  Allocating        4.818 MB for mommat_full_y_low
  Allocating        4.818 MB for mommat_full_z_up
  Allocating        4.818 MB for mommat_full_z_low
  Allocating        0.366 MB for moment_TZ

  Calculating p_x matrix elements...
  Integrating real-space momentum matrix: batch-based integration.
  Time summed over all CPUs for integration: real work      164.131 s, elapsed      183.458 s

  Calculating p_y matrix elements...
  Integrating real-space momentum matrix: batch-based integration.
  Time summed over all CPUs for integration: real work      170.118 s, elapsed      189.178 s

  Calculating p_z matrix elements...
  Integrating real-space momentum matrix: batch-based integration.
  Time summed over all CPUs for integration: real work      160.675 s, elapsed      177.687 s

  Calculating dielectric tensor elements...
  Performing Kramers-Kronig transform for interband contribution to dielectric component #     1
  Performing Kramers-Kronig transform for interband contribution to dielectric component #     2
  Performing Kramers-Kronig transform for interband contribution to dielectric component #     3

  Summary for dielectric component #  x_x
  | Broadening parameters    :       5.00000E-02 eV (Gaussian)
  | Plasma frequency         :       6.12519E-03 eV
  | Minimum omega value      :       5.00000E-03 eV
  | Epsilon at minimum omega :       5.41864E+00


  Summary for dielectric component #  y_y
  | Broadening parameters    :       5.00000E-02 eV (Gaussian)
  | Plasma frequency         :       6.56166E-03 eV
  | Minimum omega value      :       5.00000E-03 eV
  | Epsilon at minimum omega :       5.41857E+00


  Summary for dielectric component #  z_z
  | Broadening parameters    :       5.00000E-02 eV (Gaussian)
  | Plasma frequency         :       1.75279E-06 eV
  | Minimum omega value      :       5.00000E-03 eV
  | Epsilon at minimum omega :       3.51307E+00

  Dielectric calculations                                 :  max(cpu_time)    wall_clock(cpu1)
  | Time for real-space momentum matrix integration       :         66.085              68.865
  | Time for calculating momentum matrix elements         :          2.186               2.254
  | Time for plasma frequency and interband contributions :         95.749              98.262
  | Time for syncing and postprocessing                   :          0.178               0.182
  | Total time for dielectric calculations                :        164.205             169.582

  Partial memory accounting:
  | Current value for overall tracked memory usage:
  |   Minimum:      258.162 MB (on task 0)
  |   Maximum:      264.402 MB (on task 1)
  |   Average:      258.942 MB
  | Peak value for overall tracked memory usage:
  |   Minimum:     1023.924 MB (on task 7 after allocating ovlp3fn2)
  |   Maximum:     2253.341 MB (on task 6 after allocating ovlp3fn_nosplit%m)
  |   Average:     1684.765 MB
  | Largest tracked array allocation so far:
  |   Minimum:      510.595 MB (ovlp3fn_nosplit%dat on task 7)
  |   Maximum:     1608.479 MB (ovlp3fn_nosplit%dat on task 6)
  |   Average:     1141.214 MB
  Note:  These values currently only include a subset of arrays which are explicitly tracked.
  The "true" memory usage will be greater.
------------------------------------------------------------
  Output mulliken decomposition of band k points for SOC in LAPACK

  -------------------------------------------------------------------
  Writing the requested band structure output (LAPACK version):
  -------------------------------------------------------------------

  Integrating Hamiltonian matrix: batch-based integration.
  Time summed over all CPUs for integration: real work       56.119 s, elapsed       65.124 s
  Integrating SOC matrix: batch-based integration p2 version.
  Allocating        0.187 MB for dist_tab
  Allocating        0.187 MB for dist_tab_sq
  Allocating        0.560 MB for dir_tab
  Allocating        0.043 MB for i_basis_fns
  Allocating        1.880 MB for i_basis_fns_inv
  Allocating        0.043 MB for i_atom_fns
  Allocating        4.182 MB for gradient_basis_wave
  Allocating        0.008 MB for ylm_tab
  Allocating        0.002 MB for radial_wave
  Allocating        0.002 MB for radial_wave_deriv
  Allocating        0.017 MB for i_basis
  Allocating        9.950 MB for soc_shell
  Allocating        0.023 MB for cartesians
  Allocating        0.023 MB for sum_gradient
  Allocating        0.047 MB for sum_hessian
  Allocating        0.001 MB for potential_shell
  No atoms are split internally
  Number of super-cells in X Y Z:       7       7       2
  Number of atoms pairs total:         1056
  sparsity of pfbvk:   1.000000
  Number of atoms pairs in BvK cells:         1056
  Number of instances:    1
  -----------------------------------------------------
  Dividing atoms among tasks for exact exchange energy:
  Atom:     1 Weight:  0.20135E+09
  Atom:     2 Weight:  0.35722E+09
  Atom:     3 Weight:  0.66925E+08
  Atom:     4 Weight:  0.26265E+09
  Atom:     5 Weight:  0.97677E+08
  Atom:     6 Weight:  0.21083E+09

  Average weight per task:  0.14958E+09

  Number of "big" (above average) atoms  :     4
  Number of "small" (below average) atoms:     2

  There are "big" and "small" atoms
  Reserving    4 tasks for "big" atoms
  Max. weight for big atoms:  0.35722E+09 small atoms:  0.97677E+08
  Trying 5 tasks for "big" atoms:
  Max. weight for big atoms:  0.26265E+09 small atoms:  0.97677E+08
  => Atom 2 gets 2 tasks
  Trying 6 tasks for "big" atoms:
  Max. weight for big atoms:  0.21083E+09 small atoms:  0.97677E+08
  => Atom 4 gets 2 tasks
  Trying 7 tasks for "big" atoms:
  Max. weight for big atoms:  0.20135E+09 small atoms:  0.16460E+09
  => Atom 6 gets 2 tasks
  Using 1 tasks for "small" atoms, 7 for "big" atoms

  Atom division among tasks:
  Atom     1: (initial) task:     0, # of tasks:     1
  Atom     2: (initial) task:     1, # of tasks:     2
  Atom     3: (initial) task:     7, # of tasks:     1
  Atom     4: (initial) task:     3, # of tasks:     2
  Atom     5: (initial) task:     7, # of tasks:     1
  Atom     6: (initial) task:     5, # of tasks:     2

  -----------------------------------------------------
  Task      0: my_n_atoms2:      1 my_atom_list:      1
  Task      1: my_n_atoms2:      1 my_atom_list:      2
  Task      2: my_n_atoms2:      1 my_atom_list:      2
  Task      3: my_n_atoms2:      1 my_atom_list:      4
  Task      4: my_n_atoms2:      1 my_atom_list:      4
  Task      5: my_n_atoms2:      1 my_atom_list:      6
  Task      6: my_n_atoms2:      1 my_atom_list:      6
  Task      7: my_n_atoms2:      2 my_atom_list:      3     5
  Task      0: my_n_atom_pairs:    179
  Task      1: my_n_atom_pairs:     91
  Task      2: my_n_atom_pairs:     90
  Task      3: my_n_atom_pairs:    101
  Task      4: my_n_atom_pairs:    100
  Task      5: my_n_atom_pairs:     74
  Task      6: my_n_atom_pairs:     74
  Task      7: my_n_atom_pairs:    347

  Treating all   21 k-points in band plot segment #   1:

  Overlap matrix is not singular
  | Lowest and highest eigenvalues :  0.1236E-02,  0.7973E+01
  Finished singularity check of overlap matrix
  | Time :     0.024 s
  Starting LAPACK eigensolver
  Finished Cholesky decomposition
  | Time :     0.006 s
  Finished transformation to standard eigenproblem
  | Time :     0.017 s
  Finished solving standard eigenproblem
  | Time :     0.044 s
  Finished back-transformation of eigenvectors
  | Time :     0.006 s
  Scalar-relativistic "band gap" along reciprocal space direction number:    1
  | Lowest unoccupied state:      -3.84285642 eV
  | Highest occupied state :      -5.68591882 eV
  | Energy difference      :       1.84306240 eV

  Performing spin-orbit-coupled Mulliken charge analysis on all atoms.
  Allocating        1.923 MB for mulliken_decomp
  Spin-orbit-coupled "band gap" along reciprocal space direction number:    1
  | Lowest unoccupied state:      -3.90669843 eV
  | Highest occupied state :      -5.65142414 eV
  | Energy difference      :       1.74472571 eV


  Treating all   21 k-points in band plot segment #   2:

  Scalar-relativistic "band gap" along reciprocal space direction number:    2
  | Lowest unoccupied state:      -4.10029833 eV
  | Highest occupied state :      -5.49673488 eV
  | Energy difference      :       1.39643655 eV

  Performing spin-orbit-coupled Mulliken charge analysis on all atoms.
  Allocating        1.923 MB for mulliken_decomp
  Spin-orbit-coupled "band gap" along reciprocal space direction number:    2
  | Lowest unoccupied state:      -4.14839893 eV
  | Highest occupied state :      -5.38762145 eV
  | Energy difference      :       1.23922252 eV


  Treating all   21 k-points in band plot segment #   3:

  Scalar-relativistic "band gap" along reciprocal space direction number:    3
  | Lowest unoccupied state:      -4.14183662 eV
  | Highest occupied state :      -5.49673488 eV
  | Energy difference      :       1.35489826 eV

  Performing spin-orbit-coupled Mulliken charge analysis on all atoms.
  Allocating        1.923 MB for mulliken_decomp
  Spin-orbit-coupled "band gap" along reciprocal space direction number:    3
  | Lowest unoccupied state:      -4.20772232 eV
  | Highest occupied state :      -5.38762145 eV
  | Energy difference      :       1.17989913 eV


  Treating all   21 k-points in band plot segment #   4:

  Scalar-relativistic "band gap" along reciprocal space direction number:    4
  | Lowest unoccupied state:      -4.14183662 eV
  | Highest occupied state :      -5.49673488 eV
  | Energy difference      :       1.35489826 eV

  Performing spin-orbit-coupled Mulliken charge analysis on all atoms.
  Allocating        1.923 MB for mulliken_decomp
  Spin-orbit-coupled "band gap" along reciprocal space direction number:    4
  | Lowest unoccupied state:      -4.20772232 eV
  | Highest occupied state :      -5.38762145 eV
  | Energy difference      :       1.17989913 eV


  Treating all   21 k-points in band plot segment #   5:

  Scalar-relativistic "band gap" along reciprocal space direction number:    5
  | Lowest unoccupied state:      -3.84285642 eV
  | Highest occupied state :      -5.68591882 eV
  | Energy difference      :       1.84306240 eV

  Performing spin-orbit-coupled Mulliken charge analysis on all atoms.
  Allocating        1.923 MB for mulliken_decomp
  Spin-orbit-coupled "band gap" along reciprocal space direction number:    5
  | Lowest unoccupied state:      -3.90669843 eV
  | Highest occupied state :      -5.65142414 eV
  | Energy difference      :       1.74472571 eV


  Treating all   21 k-points in band plot segment #   6:

  Scalar-relativistic "band gap" along reciprocal space direction number:    6
  | Lowest unoccupied state:      -4.10029833 eV
  | Highest occupied state :      -5.49673488 eV
  | Energy difference      :       1.39643655 eV

  Performing spin-orbit-coupled Mulliken charge analysis on all atoms.
  Allocating        1.923 MB for mulliken_decomp
  Spin-orbit-coupled "band gap" along reciprocal space direction number:    6
  | Lowest unoccupied state:      -4.14839893 eV
  | Highest occupied state :      -5.38762145 eV
  | Energy difference      :       1.23922252 eV


  Treating all   21 k-points in band plot segment #   7:

  Scalar-relativistic "band gap" along reciprocal space direction number:    7
  | Lowest unoccupied state:      -4.14183662 eV
  | Highest occupied state :      -5.49673488 eV
  | Energy difference      :       1.35489826 eV

  Performing spin-orbit-coupled Mulliken charge analysis on all atoms.
  Allocating        1.923 MB for mulliken_decomp
  Spin-orbit-coupled "band gap" along reciprocal space direction number:    7
  | Lowest unoccupied state:      -4.20772232 eV
  | Highest occupied state :      -5.38762145 eV
  | Energy difference      :       1.17989913 eV


  Treating all   21 k-points in band plot segment #   8:

  Scalar-relativistic "band gap" along reciprocal space direction number:    8
  | Lowest unoccupied state:      -4.14183662 eV
  | Highest occupied state :      -5.49673488 eV
  | Energy difference      :       1.35489826 eV

  Performing spin-orbit-coupled Mulliken charge analysis on all atoms.
  Allocating        1.923 MB for mulliken_decomp
  Spin-orbit-coupled "band gap" along reciprocal space direction number:    8
  | Lowest unoccupied state:      -4.20772232 eV
  | Highest occupied state :      -5.38762145 eV
  | Energy difference      :       1.17989913 eV

  Scalar-relativistic "band gap" of total set of bands:
  | Lowest unoccupied state:      -4.14183662 eV
  | Highest occupied state :      -5.49673488 eV
  | Energy difference      :       1.35489826 eV


  Spin-orbit-coupled "band gap" of total set of bands:
  | Lowest unoccupied state:      -4.20772232 eV
  | Highest occupied state :      -5.38762145 eV
  | Energy difference      :       1.17989913 eV



  Band Structure                                          :  max(cpu_time) wall_clock(cpu1)
  | Total Time                                            :        162.471          168.103
------------------------------------------------------------

  -------------------------------------------------------------------
  Writing the requested band structure output (LAPACK version):
  -------------------------------------------------------------------

  Integrating Hamiltonian matrix: batch-based integration.
  Time summed over all CPUs for integration: real work       57.116 s, elapsed       66.806 s
  Integrating SOC matrix: batch-based integration p2 version.
  Allocating        0.187 MB for dist_tab
  Allocating        0.187 MB for dist_tab_sq
  Allocating        0.560 MB for dir_tab
  Allocating        0.043 MB for i_basis_fns
  Allocating        1.880 MB for i_basis_fns_inv
  Allocating        0.043 MB for i_atom_fns
  Allocating        4.182 MB for gradient_basis_wave
  Allocating        0.008 MB for ylm_tab
  Allocating        0.002 MB for radial_wave
  Allocating        0.002 MB for radial_wave_deriv
  Allocating        0.017 MB for i_basis
  Allocating        9.950 MB for soc_shell
  Allocating        0.023 MB for cartesians
  Allocating        0.023 MB for sum_gradient
  Allocating        0.047 MB for sum_hessian
  Allocating        0.001 MB for potential_shell
  No atoms are split internally
  Number of super-cells in X Y Z:       7       7       2
  Number of atoms pairs total:         1056
  sparsity of pfbvk:   1.000000
  Number of atoms pairs in BvK cells:         1056
  Number of instances:    1
  -----------------------------------------------------
  Dividing atoms among tasks for exact exchange energy:
  Atom:     1 Weight:  0.20135E+09
  Atom:     2 Weight:  0.35722E+09
  Atom:     3 Weight:  0.66925E+08
  Atom:     4 Weight:  0.26265E+09
  Atom:     5 Weight:  0.97677E+08
  Atom:     6 Weight:  0.21083E+09

  Average weight per task:  0.14958E+09

  Number of "big" (above average) atoms  :     4
  Number of "small" (below average) atoms:     2

  There are "big" and "small" atoms
  Reserving    4 tasks for "big" atoms
  Max. weight for big atoms:  0.35722E+09 small atoms:  0.97677E+08
  Trying 5 tasks for "big" atoms:
  Max. weight for big atoms:  0.26265E+09 small atoms:  0.97677E+08
  => Atom 2 gets 2 tasks
  Trying 6 tasks for "big" atoms:
  Max. weight for big atoms:  0.21083E+09 small atoms:  0.97677E+08
  => Atom 4 gets 2 tasks
  Trying 7 tasks for "big" atoms:
  Max. weight for big atoms:  0.20135E+09 small atoms:  0.16460E+09
  => Atom 6 gets 2 tasks
  Using 1 tasks for "small" atoms, 7 for "big" atoms

  Atom division among tasks:
  Atom     1: (initial) task:     0, # of tasks:     1
  Atom     2: (initial) task:     1, # of tasks:     2
  Atom     3: (initial) task:     7, # of tasks:     1
  Atom     4: (initial) task:     3, # of tasks:     2
  Atom     5: (initial) task:     7, # of tasks:     1
  Atom     6: (initial) task:     5, # of tasks:     2

  -----------------------------------------------------
  Task      0: my_n_atoms2:      1 my_atom_list:      1
  Task      1: my_n_atoms2:      1 my_atom_list:      2
  Task      2: my_n_atoms2:      1 my_atom_list:      2
  Task      3: my_n_atoms2:      1 my_atom_list:      4
  Task      4: my_n_atoms2:      1 my_atom_list:      4
  Task      5: my_n_atoms2:      1 my_atom_list:      6
  Task      6: my_n_atoms2:      1 my_atom_list:      6
  Task      7: my_n_atoms2:      2 my_atom_list:      3     5
  Task      0: my_n_atom_pairs:    179
  Task      1: my_n_atom_pairs:     91
  Task      2: my_n_atom_pairs:     90
  Task      3: my_n_atom_pairs:    101
  Task      4: my_n_atom_pairs:    100
  Task      5: my_n_atom_pairs:     74
  Task      6: my_n_atom_pairs:     74
  Task      7: my_n_atom_pairs:    347

===================================================================================
=   BAD TERMINATION OF ONE OF YOUR APPLICATION PROCESSES
=   RANK 1 PID 66572 RUNNING AT andrey-Latitude-5411
=   KILLED BY SIGNAL: 9 (Killed)
===================================================================================

===================================================================================
=   BAD TERMINATION OF ONE OF YOUR APPLICATION PROCESSES
=   RANK 2 PID 66573 RUNNING AT andrey-Latitude-5411
=   KILLED BY SIGNAL: 9 (Killed)
===================================================================================
