LAMMPS (29 Aug 2024 - Development - patch_29Aug2024-704-g6d0e633edf)
# LAMMPS input generated from LammpsInputFile with pymatgen v2024.10.29

# Sample input script template for MD

# Initialization

# Stage 3
units metal
atom_style atomic
dimension 3
boundary p p p

# Atom definition

# md.restart
read_data system.data
Reading data file ...
  triclinic box = (0 0 0) to (3.866975 3.348898 3.157372) with tilt (1.933487 1.933487 1.116299)
WARNING: Triclinic box skew is large. LAMMPS will run inefficiently. (src/domain.cpp:221)
  1 by 1 by 1 MPI processor grid
  reading atoms ...
  2 atoms
  read_data CPU = 0.000 seconds

# Force field settings (consult official document for detailed formats)

# Stage 7
pair_style tersoff
pair_coeff * * /Users/virkaran/Code/Notebooks/lammps_flows/test_new/../pmg_data/Si.tersoff Si
Reading tersoff potential file /Users/virkaran/Code/Notebooks/lammps_flows/test_new/../pmg_data/Si.tersoff with DATE: 2007-10-25

# Create velocities
velocity all create 300 42 mom yes rot yes dist gaussian

# Stage 9
neigh_modify delay 5 every 1 check yes

# Ensemble constraints 1 all nve 2 all nose-hoover 300 300 0.1
fix 3 all npt temp 300 300 0.1 iso 0 0 0.1

# Output settings
thermo 100 # output thermo data every N steps
dump d1 all custom 100 traj.dump id element x y z vx vy vz fx fy fz
dump_modify d1 sort id element Si

# Actions
timestep 0.001
run 1000

CITE-CITE-CITE-CITE-CITE-CITE-CITE-CITE-CITE-CITE-CITE-CITE-CITE

Your simulation uses code contributions which should be cited:

- Type Label Framework: https://doi.org/10.1021/acs.jpcb.3c08419

@Article{Gissinger24,
 author = {Jacob R. Gissinger, Ilia Nikiforov, Yaser Afshar, Brendon Waters, Moon-ki Choi, Daniel S. Karls, Alexander Stukowski, Wonpil Im, Hendrik Heinz, Axel Kohlmeyer, and Ellad B. Tadmor},
 title = {Type Label Framework for Bonded Force Fields in LAMMPS},
 journal = {J. Phys. Chem. B},
 year =    2024,
 volume =  128,
 number =  13,
 pages =   {3282--3297}
}

CITE-CITE-CITE-CITE-CITE-CITE-CITE-CITE-CITE-CITE-CITE-CITE-CITE

Neighbor list info ...
  update: every = 1 steps, delay = 5 steps, check = yes
  max neighbors/atom: 2000, page size: 100000
  master list distance cutoff = 5.2
  ghost atom cutoff = 5.2
  binsize = 2.6, bins = 3 2 2
  1 neighbor lists, perpetual/occasional/extra = 1 0 0
  (1) pair tersoff, perpetual
      attributes: full, newton on
      pair build: full/bin/atomonly
      stencil: full/bin/3d
      bin: standard
Per MPI rank memory allocation (min/avg/max) = 3.099 | 3.099 | 3.099 Mbytes
   Step          Temp          E_pair         E_mol          TotEng         Press          Volume    
         0   300           -9.2557091      0             -9.2169311     -18235.368      40.888298    
       100   107.75843     -9.2164857      0             -9.2025568     -21242.951      41.133796    
       200   25.525963     -9.1266334      0             -9.1233339     -25634.65       41.663493    
       300   194.54605     -9.1174879      0             -9.0923408      36077.38       39.132789    
       400   633.9849      -9.2068583      0             -9.1249093      51419.666      38.357529    
       500   583.39172     -9.2506912      0             -9.1752819      30790.437      38.965096    
       600   187.16323     -9.2236805      0             -9.1994878      8994.5087      39.836427    
       700   0.48893413    -9.2061526      0             -9.2060894     -16227.095      40.931632    
       800   156.8894      -9.1601735      0             -9.139894      -67281.91       43.658026    
       900   346.66207     -9.2213205      0             -9.1765109     -46862.262      42.364596    
      1000   295.41069     -9.200503       0             -9.1623182     -21697.471      41.241267    
Loop time of 0.00480737 on 1 procs for 1000 steps with 2 atoms

Performance: 17972.386 ns/day, 0.001 hours/ns, 208013.729 timesteps/s, 416.027 katom-step/s
97.8% CPU use with 1 MPI tasks x no OpenMP threads

MPI task timing breakdown:
Section |  min time  |  avg time  |  max time  |%varavg| %total
---------------------------------------------------------------
Pair    | 0.0031829  | 0.0031829  | 0.0031829  |   0.0 | 66.21
Neigh   | 0          | 0          | 0          |   0.0 |  0.00
Comm    | 0.00045523 | 0.00045523 | 0.00045523 |   0.0 |  9.47
Output  | 0.00015013 | 0.00015013 | 0.00015013 |   0.0 |  3.12
Modify  | 0.00081058 | 0.00081058 | 0.00081058 |   0.0 | 16.86
Other   |            | 0.0002085  |            |       |  4.34

Nlocal:              2 ave           2 max           2 min
Histogram: 1 0 0 0 0 0 0 0 0 0
Nghost:            126 ave         126 max         126 min
Histogram: 1 0 0 0 0 0 0 0 0 0
Neighs:              0 ave           0 max           0 min
Histogram: 1 0 0 0 0 0 0 0 0 0
FullNghs:           56 ave          56 max          56 min
Histogram: 1 0 0 0 0 0 0 0 0 0

Total # of neighbors = 56
Ave neighs/atom = 28
Neighbor list builds = 0
Dangerous builds = 0
write_restart md.restart
System init for write_restart ...
Total wall time: 0:00:00
