ITEM: TIMESTEP
0
ITEM: NUMBER OF ATOMS
2
ITEM: BOX BOUNDS xy xz yz pp pp pp
0.0000000000000000e+00 7.7339489999999991e+00 1.9334870000000000e+00
0.0000000000000000e+00 4.4651969999999999e+00 1.9334870000000000e+00
0.0000000000000000e+00 3.1573720000000001e+00 1.1162989999999999e+00
ITEM: ATOMS id element x y z vx vy vz fx fy fz
1 Si 1.93349 1.1163 0.789343 -2.98014 -1.72059 -1.21664 6.84347e-06 2.39893e-06 2.51811e-06
2 Si 0 0 0 2.98014 1.72059 1.21664 -6.84347e-06 -2.39893e-06 -2.51811e-06
ITEM: TIMESTEP
100
ITEM: NUMBER OF ATOMS
2
ITEM: BOX BOUNDS xy xz yz pp pp pp
-3.8619019570657032e-03 7.7455347038738172e+00 1.9373489009583769e+00
-3.3445046167136509e-03 4.4707711736953977e+00 1.9373489009583769e+00
-3.1532298776134051e-03 3.1605252298776136e+00 1.1185286690786842e+00
ITEM: ATOMS id element x y z vx vy vz fx fy fz
1 Si 1.96327 1.13238 0.799926 1.78608 1.0312 0.729166 -0.759352 -0.43841 -0.310004
2 Si -0.033646 -0.0205403 -0.0153125 -1.78608 -1.0312 -0.729166 0.759352 0.43841 0.310004
ITEM: TIMESTEP
200
ITEM: NUMBER OF ATOMS
2
ITEM: BOX BOUNDS xy xz yz pp pp pp
-1.2142478150970287e-02 7.7703764281728196e+00 1.9456294750109260e+00
-1.0515692704202753e-02 4.4827231524136408e+00 1.9456294750109260e+00
-9.9142923149185252e-03 3.1672862923149205e+00 1.1233094597094391e+00
ITEM: ATOMS id element x y z vx vy vz fx fy fz
1 Si 1.88442 1.08447 0.764356 0.869304 0.501873 0.354888 1.64042 0.947102 0.669701
2 Si 0.0369203 0.0178109 0.0101156 -0.869304 -0.501873 -0.354888 -1.64042 -0.947102 -0.669701
ITEM: TIMESTEP
300
ITEM: NUMBER OF ATOMS
2
ITEM: BOX BOUNDS xy xz yz pp pp pp
2.8076695087321558e-02 7.6497189292593006e+00 1.9054103121733148e+00
2.4315126946652686e-02 4.4246717932626680e+00 1.9054103121733148e+00
2.2924526515233648e-02 3.1344474734847676e+00 1.1000889202093225e+00
ITEM: ATOMS id element x y z vx vy vz fx fy fz
1 Si 1.99096 1.15758 0.824268 -2.39987 -1.38556 -0.979742 -1.38944 -0.802207 -0.567241
2 Si -0.0293937 -0.00886565 -0.000537723 2.39987 1.38556 0.979742 1.38944 0.802207 0.567241
ITEM: TIMESTEP
400
ITEM: NUMBER OF ATOMS
2
ITEM: BOX BOUNDS xy xz yz pp pp pp
4.0743420393023123e-02 7.6117187598934226e+00 1.8927435901432283e+00
3.5284830925294421e-02 4.4063889554820062e+00 1.8927435901432283e+00
3.3266864857714705e-02 3.1241051351422859e+00 1.0927757864073036e+00
ITEM: ATOMS id element x y z vx vy vz fx fy fz
1 Si 1.91047 1.11477 0.79658 4.33227 2.50125 1.76864 0.90057 0.519955 0.367659
2 Si 0.0637603 0.048574 0.0426635 -4.33227 -2.50125 -1.76864 -0.90057 -0.519955 -0.367659
ITEM: TIMESTEP
500
ITEM: NUMBER OF ATOMS
2
ITEM: BOX BOUNDS xy xz yz pp pp pp
3.0802307404395667e-02 7.6415420937177592e+00 1.9026847005610825e+00
2.6675576041208460e-02 4.4207377119082993e+00 1.9026847005610825e+00
2.5149979747486187e-02 3.1322220202525148e+00 1.0985152879495115e+00
ITEM: ATOMS id element x y z vx vy vz fx fy fz
1 Si 1.93704 1.12724 0.80337 -4.1558 -2.39938 -1.69661 -0.120149 -0.0693722 -0.0490517
2 Si 0.0272451 0.0246218 0.0236977 4.1558 2.39938 1.69661 0.120149 0.0693722 0.0490517
ITEM: TIMESTEP
600
ITEM: NUMBER OF ATOMS
2
ITEM: BOX BOUNDS xy xz yz pp pp pp
1.6724207820033490e-02 7.6837763851896526e+00 1.9167627965048468e+00
1.4483586296802884e-02 4.4410576923885738e+00 1.9167627965048468e+00
1.3655259083173438e-02 3.1437167409168234e+00 1.1066432786853828e+00
ITEM: ATOMS id element x y z vx vy vz fx fy fz
1 Si 1.96233 1.13778 0.807948 2.35388 1.35904 0.960975 -0.80569 -0.465168 -0.328922
2 Si -0.0121238 -0.00217184 0.0018781 -2.35388 -1.35904 -0.960975 0.80569 0.465168 0.328922
ITEM: TIMESTEP
700
ITEM: NUMBER OF ATOMS
2
ITEM: BOX BOUNDS xy xz yz pp pp pp
-6.8280315895711565e-04 7.7359974091237209e+00 1.9341698029823846e+00
-5.9132477801079354e-04 4.4661825411789620e+00 1.9341698029823846e+00
-5.5750646839091182e-04 3.1579295064683883e+00 1.1166932164009560e+00
ITEM: ATOMS id element x y z vx vy vz fx fy fz
1 Si 1.90182 1.09782 0.776136 0.120316 0.0694514 0.0491147 1.06708 0.616085 0.435634
2 Si 0.030985 0.0176925 0.0123709 -0.120316 -0.0694514 -0.0491147 -1.06708 -0.616085 -0.435634
ITEM: TIMESTEP
800
ITEM: NUMBER OF ATOMS
2
ITEM: BOX BOUNDS xy xz yz pp pp pp
-4.2707154032842018e-02 7.8620704400103758e+00 1.9761941429887695e+00
-3.6985473846170867e-02 4.5268394490475590e+00 1.9761941429887695e+00
-3.4870246728510711e-02 3.1922422467285108e+00 1.1409559752013945e+00
ITEM: ATOMS id element x y z vx vy vz fx fy fz
1 Si 1.95502 1.1164 0.780698 -2.15512 -1.24427 -0.879828 -0.488767 -0.282197 -0.19954
2 Si -0.0642388 -0.049417 -0.0436606 2.15512 1.24427 0.879828 0.488767 0.282197 0.19954
ITEM: TIMESTEP
900
ITEM: NUMBER OF ATOMS
2
ITEM: BOX BOUNDS xy xz yz pp pp pp
-2.2995345683534091e-02 7.8029350251574083e+00 1.9564823397369384e+00
-1.9914550047238130e-02 4.4983879127809914e+00 1.9564823397369384e+00
-1.8775621924504327e-02 3.1761476219245095e+00 1.1295753627337561e+00
ITEM: ATOMS id element x y z vx vy vz fx fy fz
1 Si 1.94191 1.11452 0.783394 3.20352 1.84959 1.30784 -0.222244 -0.128308 -0.0907296
2 Si -0.0314193 -0.0247779 -0.0222146 -3.20352 -1.84959 -1.30784 0.222244 0.128308 0.0907296
ITEM: TIMESTEP
1000
ITEM: NUMBER OF ATOMS
2
ITEM: BOX BOUNDS xy xz yz pp pp pp
-5.5476830359719800e-03 7.7505920462386531e+00 1.9390346816013415e+00
-4.8044336008944812e-03 4.4732043883783970e+00 1.9390346816013415e+00
-4.5296644231353550e-03 3.1619016644231386e+00 1.1195019547775047e+00
ITEM: ATOMS id element x y z vx vy vz fx fy fz
1 Si 1.90115 1.09603 0.773877 -2.95724 -1.70741 -1.2073 1.06893 0.617153 0.43639
2 Si 0.0267887 0.0138653 0.00867171 2.95724 1.70741 1.2073 -1.06893 -0.617153 -0.43639
