ITEM: TIMESTEP
0
ITEM: NUMBER OF ATOMS
250
ITEM: BOX BOUNDS xy xz yz pp pp pp
0.0000000000000000e+00 3.8669747000000001e+01 9.6674369999999996e+00
0.0000000000000000e+00 2.2325987999999999e+01 9.6674369999999996e+00
0.0000000000000000e+00 1.5786858000000001e+01 5.5814969999999997e+00
ITEM: ATOMS id element x y z vx vy vz fx fy fz
1 Si 1.93349 1.1163 0.789343 -2.60895 2.80837 -3.02238 6.57592e-06 1.89829e-06 3.09746e-06
2 Si 3.86698 2.2326 3.94671 -1.2948 0.181392 1.77712 -6.66747e-06 -3.06691e-06 4.40731e-06
3 Si 5.80046 3.3489 7.10409 -4.69532 0.751742 0.0883233 4.49349e-08 5.65274e-06 5.37271e-06
4 Si 7.73395 4.4652 10.2615 3.06842 -2.2801 -2.05757 6.47174e-06 -3.12802e-06 -1.02237e-05
5 Si 9.66744 5.5815 13.4188 -1.22435 -2.86396 3.86109 -6.57592e-06 2.31658e-06 2.19631e-06
6 Si 3.86697 4.4652 0.789343 0.368517 -0.75086 1.02244 -6.66746e-06 -2.9185e-06 -1.98704e-07
7 Si 5.80046 5.5815 3.94671 -3.09073 0.507867 0.117202 -5.92265e-08 6.02711e-06 9.92428e-06
8 Si 7.73395 6.6978 7.10409 3.52073 -7.42234 -3.86303 6.36758e-06 -1.17569e-05 2.38498e-06
9 Si 9.66744 7.8141 10.2615 4.68346 1.28555 -4.11192 -6.57592e-06 2.48598e-06 -6.99087e-06
10 Si 11.6009 8.9304 13.4188 3.93938 -4.03867 -1.95026 -1.63387e-07 5.7657e-06 4.96535e-06
11 Si 5.80046 7.8141 0.789343 3.81907 -3.83641 -0.997276 4.4935e-08 6.08747e-06 5.28941e-06
12 Si 7.73395 8.9304 3.94671 -0.369041 -3.41236 0.711878 6.36761e-06 2.10314e-06 7.52039e-06
13 Si 9.66744 10.0467 7.10409 -5.62868 -1.3963 0.43802 -6.57591e-06 -3.06691e-06 -4.30148e-07
14 Si 11.6009 11.163 10.2615 1.16741 5.3483 -1.40875 -5.92263e-08 5.87869e-06 -4.29725e-06
15 Si 13.5344 12.2793 13.4188 0.932383 -3.81247 -2.39314 7.05844e-06 -2.92317e-06 -1.00278e-06
16 Si 7.73395 11.163 0.789343 4.76277 4.93637 -0.726461 -3.7171e-07 5.70448e-06 5.67287e-06
17 Si 9.66744 12.2793 3.94671 1.4051 -1.20241 -3.51243 -6.57592e-06 -2.9185e-06 4.29581e-06
18 Si 11.6009 13.3956 7.10409 4.6118 0.327505 -4.57691 -5.92263e-08 6.0271e-06 5.08682e-06
19 Si 13.5344 14.5119 10.2615 -2.5873 0.330922 -1.99185 6.36758e-06 -1.17569e-05 -7.18556e-06
20 Si 15.4679 15.6282 13.4188 2.92732 1.99267 0.944734 -6.57592e-06 2.48598e-06 2.23673e-06
21 Si 9.66744 14.5119 0.789343 -7.34411 -3.86666 0.21998 -6.57591e-06 -1.14908e-05 2.62465e-06
22 Si 11.6009 15.6282 3.94671 2.4134 1.39268 1.28361 -1.63388e-07 -2.75095e-06 1.27755e-05
23 Si 13.5344 16.7445 7.10409 1.23847 5.00669 0.658492 7.05846e-06 2.25622e-06 2.61467e-06
24 Si 15.4679 17.8608 10.2615 4.01535 -2.91325 -3.59396 -6.57591e-06 -1.17877e-05 -6.99087e-06
25 Si 17.4014 18.9771 13.4188 -1.24924 -5.30756 5.8501 -2.67549e-07 5.90944e-06 4.66068e-06
26 Si 5.80046 1.1163 0.789343 2.53132 0.156012 -1.77433 2.08323e-07 5.64793e-06 5.74886e-06
27 Si 7.73395 2.2326 3.94671 -0.573811 0.125861 -2.19559 6.47176e-06 -3.12802e-06 4.18426e-06
28 Si 9.66744 3.3489 7.10409 4.79747 2.28018 0.017814 -6.45915e-06 2.10314e-06 2.68294e-06
29 Si 11.6009 4.4652 10.2615 -0.222345 -2.85375 -1.85686 1.04161e-07 3.95629e-07 -7.37247e-06
30 Si 13.5344 5.5815 13.4188 -4.3801 -1.88311 -3.70328 7.17523e-06 2.25548e-06 1.97327e-06
31 Si 7.73395 4.4652 0.789343 0.981878 0.695861 0.306482 6.47174e-06 -3.14916e-06 -1.8197e-07
32 Si 9.66744 5.5815 3.94671 -0.992493 0.606315 4.17785 -6.36761e-06 2.42095e-06 7.37434e-06
33 Si 11.6009 6.6978 7.10409 -0.553499 -2.68886 0.903658 9.15101e-14 -8.12016e-06 4.95655e-06
34 Si 13.5344 7.8141 10.2615 -0.466596 -1.91149 -0.346482 6.3676e-06 2.36832e-06 -7.07407e-06
35 Si 15.4679 8.9304 13.4188 -4.56038 3.13938 -1.79917 -6.47176e-06 2.38554e-06 2.34541e-06
36 Si 9.66744 7.8141 0.789343 -4.21491 3.09366 -4.20998 -7.16262e-06 2.36832e-06 2.8394e-06
37 Si 11.6009 8.9304 3.94671 -1.8643 -2.43032 0.817003 -1.6015e-14 5.73991e-06 1.0092e-05
38 Si 13.5344 10.0467 7.10409 6.41072 -0.968859 1.12016 6.36758e-06 -3.18457e-06 -5.13347e-07
39 Si 15.4679 11.163 10.2615 -3.33182 -1.64378 -2.38225 -6.3676e-06 2.27254e-06 -6.84719e-06
40 Si 17.4014 12.2793 13.4188 -1.15982 1.67533 7.65794 -1.04161e-07 4.87595e-07 1.63879e-06
41 Si 11.6009 11.163 0.789343 -6.80302 -0.268043 -2.11963 -6.73931e-06 2.47736e-06 3.03129e-06
42 Si 13.5344 12.2793 3.94671 -4.49452 -4.10991 -5.40913 6.36759e-06 -3.03617e-06 4.21261e-06
43 Si 15.4679 13.3956 7.10409 -3.16323 -3.75459 1.11639 -6.3676e-06 2.42095e-06 2.53688e-06
44 Si 17.4014 14.5119 10.2615 -1.34934 -0.12741 0.0637457 1.88322e-14 -8.12016e-06 -4.61399e-06
45 Si 19.3349 15.6282 13.4188 1.87274 -6.02556 0.945654 6.45915e-06 2.36832e-06 2.15353e-06
46 Si 13.5344 14.5119 0.789343 -0.825961 -1.60661 2.36344 7.17521e-06 -1.17215e-05 2.64138e-06
47 Si 15.4679 15.6282 3.94671 -4.17247 0.413337 0.87004 -6.47177e-06 -6.34777e-06 1.04619e-05
48 Si 17.4014 16.7445 7.10409 0.886504 4.60671 3.35167 -1.04161e-07 5.88364e-06 4.94984e-06
49 Si 19.3349 17.8608 10.2615 -1.00349 -0.0996628 -3.69842 7.1626e-06 -1.19053e-05 -7.07406e-06
50 Si 21.2684 18.9771 13.4188 0.80673 -3.38072 0.0978391 -6.57592e-06 2.53861e-06 2.27714e-06
51 Si 9.66744 1.1163 0.789343 -1.90649 2.54423 -1.66612 -6.5507e-06 1.95473e-06 3.13737e-06
52 Si 11.6009 2.2326 3.94671 -3.18867 -1.33984 4.69667 1.04161e-07 3.95631e-07 7.03552e-06
53 Si 13.5344 3.3489 7.10409 0.515397 1.81967 6.32223 6.47176e-06 2.15969e-06 2.54309e-06
54 Si 15.4679 4.4652 10.2615 -1.81503 0.165255 2.23903 -6.45914e-06 -3.18457e-06 -1.00839e-05
55 Si 17.4014 5.5815 13.4188 -2.05578 -0.0562323 -1.8171 -5.69683e-14 5.66613e-06 4.85954e-06
56 Si 11.6009 4.4652 0.789343 1.34907 5.97159 4.07417 1.04161e-07 7.13585e-07 2.18974e-06
57 Si 13.5344 5.5815 3.94671 -3.23964 -4.45984 2.0031 6.36761e-06 2.42095e-06 7.37434e-06
58 Si 15.4679 6.6978 7.10409 -1.40539 6.65585 -0.68406 -6.36758e-06 -1.17569e-05 2.38498e-06
59 Si 17.4014 7.8141 10.2615 -1.73364 0.264942 4.36016 -4.49224e-14 6.00508e-06 -4.50249e-06
60 Si 19.3349 8.9304 13.4188 3.63621 1.31417 -1.28369 7.16262e-06 2.27254e-06 2.38042e-06
61 Si 13.5344 7.8141 0.789343 4.9376 -0.550084 0.309633 -3.7171e-07 5.80026e-06 5.44598e-06
62 Si 15.4679 8.9304 3.94671 1.65938 0.637048 -0.997257 -6.36761e-06 2.10314e-06 7.52039e-06
63 Si 17.4014 10.0467 7.10409 0.0960852 -6.81488 -3.9224 1.83742e-14 4.52181e-07 2.05822e-06
64 Si 19.3349 11.163 10.2615 -4.17828 0.857535 0.631566 6.3676e-06 2.27254e-06 -6.84719e-06
65 Si 21.2684 12.2793 13.4188 0.698676 2.70553 2.0052 -6.47174e-06 -2.92317e-06 -1.00278e-06
66 Si 15.4679 11.163 0.789343 -4.28498 0.231315 -1.09447 -6.45915e-06 2.27254e-06 3.06629e-06
67 Si 17.4014 12.2793 3.94671 2.61762 1.22472 2.41344 -5.35683e-15 6.00593e-07 6.78419e-06
68 Si 19.3349 13.3956 7.10409 -0.842971 0.117087 1.61614 6.3676e-06 2.42095e-06 2.53688e-06
69 Si 21.2684 14.5119 10.2615 3.22191 0.115745 8.2407 -6.36758e-06 -1.17569e-05 -7.18556e-06
70 Si 23.2018 15.6282 13.4188 -2.95498 3.38855 -6.75079 -1.04161e-07 5.89208e-06 4.76011e-06
71 Si 17.4014 14.5119 0.789343 2.56534 5.58607 -2.67264 -7.09571e-14 -7.86342e-06 4.89489e-06
72 Si 19.3349 15.6282 3.94671 0.917532 2.26309 1.81825 7.16262e-06 -6.35244e-06 1.03437e-05
73 Si 21.2684 16.7445 7.10409 -0.0815226 1.60489 -0.337259 -6.47176e-06 2.25622e-06 2.61467e-06
74 Si 23.2018 17.8608 10.2615 -2.30332 -4.70863 -2.85501 -1.04161e-07 -8.27323e-06 -4.62069e-06
75 Si 25.1353 18.9771 13.4188 -4.03948 -2.56933 1.89631 7.95764e-06 2.42095e-06 2.19395e-06
76 Si 13.5344 1.1163 0.789343 0.655853 2.22251 1.44791 6.57592e-06 1.89829e-06 3.09746e-06
77 Si 15.4679 2.2326 3.94671 -0.0903841 -3.17921 -0.33059 -6.45915e-06 -3.18457e-06 4.32411e-06
78 Si 17.4014 3.3489 7.10409 -0.578705 -1.05395 -4.5949 1.04161e-07 5.68335e-06 5.39436e-06
79 Si 19.3349 4.4652 10.2615 3.08031 3.08227 -1.30229 6.47174e-06 -3.12802e-06 -1.02237e-05
80 Si 21.2684 5.5815 13.4188 -4.04794 1.80061 3.5505 -6.47176e-06 2.31192e-06 2.07811e-06
81 Si 15.4679 4.4652 0.789343 4.21331 0.221427 -1.6967 -7.1626e-06 -3.03616e-06 -2.81903e-07
82 Si 17.4014 5.5815 3.94671 2.50317 2.17356 -3.35491 -2.39808e-14 6.05772e-06 9.94592e-06
83 Si 19.3349 6.6978 7.10409 -1.54387 -3.65336 1.87219 6.36758e-06 -1.17569e-05 2.38498e-06
84 Si 21.2684 7.8141 10.2615 -3.66262 1.02592 -2.86668 -6.3676e-06 2.36832e-06 -7.07407e-06
85 Si 23.2018 8.9304 13.4188 -2.26619 -0.67722 -6.95247 -1.04161e-07 5.7963e-06 4.98699e-06
86 Si 17.4014 7.8141 0.789343 2.07391 2.28381 -0.433058 -6.73931e-06 2.57314e-06 2.8044e-06
87 Si 19.3349 8.9304 3.94671 2.7144 -2.86006 0.255313 6.36761e-06 2.10314e-06 7.52039e-06
88 Si 21.2684 10.0467 7.10409 3.73576 -2.52643 -0.952388 -6.36758e-06 -3.18457e-06 -5.13347e-07
89 Si 23.2018 11.163 10.2615 -0.774182 -2.912 -3.09403 7.16371e-14 5.9093e-06 -4.27561e-06
90 Si 25.1353 12.2793 13.4188 2.1983 0.579356 -0.864366 6.45914e-06 -3.03616e-06 -9.67779e-07
91 Si 19.3349 11.163 0.789343 -1.05218 0.992809 0.437886 6.47176e-06 2.15955e-06 3.16622e-06
92 Si 21.2684 12.2793 3.94671 3.18146 4.99312 0.0795989 -6.36759e-06 -3.03617e-06 4.21261e-06
93 Si 23.2018 13.3956 7.10409 -2.59456 3.2835 5.98615 5.41373e-14 6.05771e-06 5.10846e-06
94 Si 25.1353 14.5119 10.2615 1.31848 -1.05625 -4.11903 6.36758e-06 -1.17569e-05 -7.18556e-06
95 Si 27.0688 15.6282 13.4188 5.54755 4.66562 2.49019 -6.47176e-06 2.48132e-06 2.11853e-06
96 Si 21.2684 14.5119 0.789343 -3.51787 -0.182095 -6.43795 -6.47174e-06 -1.16038e-05 2.65965e-06
97 Si 23.2018 15.6282 3.94671 -6.26071 0.576456 2.65036 -1.04161e-07 -2.72034e-06 1.27971e-05
98 Si 25.1353 16.7445 7.10409 2.26337 -0.158573 2.89275 7.16262e-06 2.25155e-06 2.49647e-06
99 Si 27.0688 17.8608 10.2615 -5.17066 -1.62946 -0.736888 -6.47174e-06 -1.19007e-05 -6.95586e-06
100 Si 29.0023 18.9771 13.4188 -3.01756 1.58407 3.01978 -2.08322e-07 5.94005e-06 4.68232e-06
101 Si 17.4014 1.1163 0.789343 -0.530815 0.355381 0.205586 2.67549e-07 5.61733e-06 5.72721e-06
102 Si 19.3349 2.2326 3.94671 2.23763 2.18249 -2.39814 -2.67549e-07 3.03913e-07 6.79084e-06
103 Si 21.2684 3.3489 7.10409 -2.10055 -5.78447 1.32928 -6.35499e-06 2.15969e-06 2.54309e-06
104 Si 23.2018 4.4652 10.2615 -0.272217 2.70979 2.9743 1.63387e-07 3.6502e-07 -7.39412e-06
105 Si 25.1353 5.5815 13.4188 -2.1349 3.94639 6.75831 4.35918e-07 5.68741e-06 4.57985e-06
106 Si 19.3349 4.4652 0.789343 -3.72889 -3.19511 1.7616 -2.67549e-07 4.5232e-07 2.18482e-06
107 Si 21.2684 5.5815 3.94671 2.56228 3.9551 -1.5398 -6.36761e-06 2.42095e-06 7.37434e-06
108 Si 23.2018 6.6978 7.10409 -1.15945 -1.12165 3.04314 5.92262e-08 -8.15077e-06 4.93491e-06
109 Si 25.1353 7.8141 10.2615 -0.576747 2.77925 -3.76123 -2.67549e-07 5.85681e-06 -4.60734e-06
110 Si 27.0688 8.9304 13.4188 -2.15351 4.64272 0.676112 -6.47176e-06 2.38554e-06 2.34541e-06
111 Si 21.2684 7.8141 0.789343 1.16377 1.42633 -1.83182 -6.35499e-06 2.25533e-06 2.93934e-06
112 Si 23.2018 8.9304 3.94671 -0.448326 -1.44331 -3.27543 5.92267e-08 5.7093e-06 1.00703e-05
113 Si 25.1353 10.0467 7.10409 3.26301 2.2544 3.64898 -2.67548e-07 3.0391e-07 1.95338e-06
114 Si 27.0688 11.163 10.2615 2.03139 2.53252 -4.48828 -6.3676e-06 2.27254e-06 -6.84719e-06
115 Si 29.0023 12.2793 13.4188 -4.39854 -3.33867 0.339538 -4.49351e-08 4.56986e-07 1.61715e-06
116 Si 23.2018 11.163 0.789343 2.80354 -2.24253 -3.54741 1.63388e-07 5.99169e-06 5.51629e-06
117 Si 25.1353 12.2793 3.94671 -1.72139 -6.77496 1.22162 -2.67549e-07 4.52323e-07 6.67934e-06
118 Si 27.0688 13.3956 7.10409 -1.09118 -2.02453 3.00006 -6.3676e-06 2.42095e-06 2.53688e-06
119 Si 29.0023 14.5119 10.2615 -1.84461 -2.18022 2.03315 5.9226e-08 -8.15077e-06 -4.63563e-06
120 Si 30.9358 15.6282 13.4188 0.961256 -3.47681 -6.78839 5.27471e-07 5.85681e-06 4.62027e-06
121 Si 25.1353 14.5119 0.789343 0.502207 3.70543 5.37465 4.35915e-07 -8.12002e-06 5.00818e-06
122 Si 27.0688 15.6282 3.94671 7.60966 -3.05085 -0.258025 -6.47177e-06 -6.34777e-06 1.04619e-05
123 Si 29.0023 16.7445 7.10409 2.33453 2.33224 -5.70866 -4.49348e-08 5.85303e-06 4.9282e-06
124 Si 30.9358 17.8608 10.2615 0.713333 4.12514 0.428398 5.27466e-07 -8.41683e-06 -4.60734e-06
125 Si 32.8693 18.9771 13.4188 1.65506 -1.87798 -0.136219 -6.57592e-06 2.53861e-06 2.27714e-06
126 Si 0 0 0 0.347851 -1.74665 -3.67509 1.49096e-07 2.86394e-06 -7.97302e-06
127 Si 30.9358 17.8608 3.15737 -0.596092 -0.52904 3.70603 6.47176e-06 1.16039e-05 -7.15417e-06
128 Si 3.86698 2.2326 6.31474 -0.0606985 -1.25152 1.42033 -5.27471e-07 -5.90944e-06 -5.34655e-06
129 Si 34.8028 20.0934 9.47212 1.02006 -0.447458 -1.538 4.49353e-08 8.15543e-06 -4.47377e-06
130 Si 27.0688 4.4652 12.6295 -3.5413 -2.22176 3.60469 6.3676e-06 -2.31262e-06 6.81552e-06
131 Si 21.2684 3.3489 0 0.108116 -4.4465 -0.383106 6.47174e-06 2.92317e-06 6.59842e-07
132 Si 23.2018 4.4652 3.15737 -1.7732 0.1413 0.744252 2.67549e-07 -5.76104e-06 -1.00275e-05
133 Si 25.1353 5.5815 6.31474 1.92404 -3.57559 0.864068 -5.92261e-08 -4.21572e-07 -2.37952e-06
134 Si 27.0688 6.6978 9.47212 4.69508 -3.25745 3.65993 6.3676e-06 -2.10314e-06 -2.34e-06
135 Si 9.66744 7.8141 12.6295 -3.21868 5.31672 0.976231 2.67549e-07 -5.85681e-06 4.60734e-06
136 Si 23.2018 6.6978 0 2.50018 4.06515 -0.193993 -5.2747e-07 -5.76103e-06 -5.19009e-06
137 Si 25.1353 7.8141 3.15737 1.38969 -0.0298589 2.9742 -5.92267e-08 -5.97448e-06 -9.88386e-06
138 Si 27.0688 8.9304 6.31474 -2.79725 1.84433 -0.753723 6.36758e-06 1.17569e-05 -2.72792e-06
139 Si 29.0023 10.0467 9.47212 -1.56641 -0.576755 4.51024 2.67549e-07 -5.90944e-06 -4.66068e-06
140 Si 30.9358 11.163 12.6295 -1.45325 -0.4825 1.74646 -1.63387e-07 -6.82976e-07 7.74539e-06
141 Si 34.8028 15.6282 15.7869 -0.844321 1.98897 4.25173 1.04161e-07 -5.83087e-06 -5.05976e-06
142 Si 27.0688 11.163 3.15737 0.666271 4.78252 -1.02882 6.47176e-06 2.92317e-06 -4.17761e-06
143 Si 29.0023 12.2793 6.31474 -1.3447 0.495456 3.5686 2.67549e-07 -5.76103e-06 -5.53302e-06
144 Si 30.9358 13.3956 9.47212 1.67052 -2.41811 2.42089 -5.92261e-08 -4.21572e-07 -1.69364e-06
145 Si 32.8693 14.5119 12.6295 -3.2328 1.61717 -1.10363 6.35499e-06 -1.99015e-06 6.78767e-06
146 Si 27.0688 13.3956 0 6.22754 5.70461 1.08704 6.47174e-06 3.01036e-06 5.69992e-07
147 Si 29.0023 14.5119 3.15737 0.903382 -1.3944 -1.1312 2.67549e-07 -5.44323e-06 -1.00986e-05
148 Si 30.9358 15.6282 6.31474 4.64608 -0.633498 -5.97716 -1.63388e-07 -5.74852e-06 -5.48877e-06
149 Si 32.8693 16.7445 9.47212 2.03904 2.49404 3.40768 6.35497e-06 1.18488e-05 -2.01369e-06
150 Si 34.8028 17.8608 12.6295 1.36117 -0.719225 -2.73944 2.67549e-07 -5.74004e-06 4.60734e-06
151 Si 3.86698 0 0 -3.69737 -2.5121 -3.68065 -7.95763e-06 6.35242e-06 -5.50629e-06
152 Si 15.4679 17.8608 3.15737 -0.776769 -2.12455 1.33432 1.04161e-07 7.97643e-06 -9.48934e-06
153 Si 7.73395 2.2326 6.31474 5.77754 -0.116947 -0.625484 6.47176e-06 -2.42562e-06 -2.99802e-06
154 Si 19.3349 20.0934 9.47212 1.32331 -2.22982 -0.252612 -7.1626e-06 1.17569e-05 -2.04204e-06
155 Si 11.6009 4.4652 12.6295 -2.10909 1.48504 -0.514847 -3.23698e-14 -6.16604e-06 4.68021e-06
156 Si 5.80046 3.3489 0 -1.32508 1.4997 -0.460155 1.04161e-07 -4.87595e-07 -1.98173e-06
157 Si 7.73395 4.4652 3.15737 -4.73991 -2.29001 -1.0157 6.36761e-06 -2.27254e-06 -7.56081e-06
158 Si 9.66744 5.5815 6.31474 4.24339 -2.58369 1.33681 -6.36758e-06 3.18457e-06 1.7041e-07
159 Si 11.6009 6.6978 9.47212 0.537418 0.412377 6.79315 4.44089e-14 -5.7399e-06 -4.91158e-06
160 Si 13.5344 7.8141 12.6295 -1.31684 4.89866 -1.31515 6.45915e-06 -2.36832e-06 7.07407e-06
161 Si 7.73395 6.6978 0 -0.650309 -3.72471 2.99281 6.57592e-06 -2.44209e-06 -2.54851e-06
162 Si 9.66744 7.8141 3.15737 5.01595 -1.82235 -4.35889 -6.45916e-06 -2.36832e-06 -7.33392e-06
163 Si 11.6009 8.9304 6.31474 -0.448784 0.452445 3.98376 1.33227e-14 8.12016e-06 -5.29949e-06
164 Si 13.5344 10.0467 9.47212 0.380553 1.2247 5.91615 6.3676e-06 -2.42095e-06 -2.19394e-06
165 Si 15.4679 11.163 12.6295 1.11306 1.43583 -4.10376 -6.47174e-06 3.14916e-06 1.00954e-05
166 Si 19.3349 15.6282 15.7869 -0.485606 3.89956 1.18249 7.16262e-06 -2.36832e-06 -2.49647e-06
167 Si 11.6009 11.163 3.15737 4.54482 1.98612 4.94608 1.04161e-07 -4.87598e-07 -6.81919e-06
168 Si 13.5344 12.2793 6.31474 -2.93966 4.57463 -0.935224 6.3676e-06 -2.27254e-06 -3.06629e-06
169 Si 15.4679 13.3956 9.47212 3.60314 -2.62664 -1.85071 -6.36758e-06 3.18457e-06 8.56285e-07
170 Si 17.4014 14.5119 12.6295 5.92154 3.19737 1.283 2.74052e-14 -5.7399e-06 4.31602e-06
171 Si 11.6009 13.3956 0 3.38459 0.908467 0.997653 1.04161e-07 -2.77968e-07 -2.11487e-06
172 Si 13.5344 14.5119 3.15737 4.85796 7.13107 -1.74852 6.45916e-06 -1.95474e-06 -7.63189e-06
173 Si 15.4679 15.6282 6.31474 -1.35363 5.22289 -0.20226 -6.47176e-06 -2.25547e-06 -2.65914e-06
174 Si 17.4014 16.7445 9.47212 -0.448986 -2.41242 1.32562 -1.04161e-07 8.32512e-06 -4.86495e-06
175 Si 19.3349 17.8608 12.6295 3.63395 3.33601 10.0328 6.45915e-06 -2.25155e-06 7.07407e-06
176 Si 7.73395 0 0 -1.41153 -1.24864 5.20732 6.57592e-06 6.23476e-06 -5.58949e-06
177 Si 19.3349 17.8608 3.15737 -1.47697 0.658809 0.789692 -7.16261e-06 1.16085e-05 -7.03597e-06
178 Si 11.6009 2.2326 6.31474 0.3279 -2.7051 3.78983 1.04161e-07 -6.05304e-06 -5.3332e-06
179 Si 23.2018 20.0934 9.47212 0.0538378 0.985123 0.46392 6.47174e-06 1.17522e-05 -2.16024e-06
180 Si 15.4679 4.4652 12.6295 -3.49619 0.417556 0.248042 -7.17523e-06 -2.30796e-06 6.93372e-06
181 Si 9.66744 3.3489 0 -3.34 3.53463 0.567185 -7.1626e-06 3.03616e-06 6.24839e-07
182 Si 11.6009 4.4652 3.15737 1.30687 1.61504 1.22344 6.07743e-14 -5.90931e-06 -1.01324e-05
183 Si 13.5344 5.5815 6.31474 1.16147 -0.35416 -4.22404 6.36758e-06 3.18457e-06 1.7041e-07
184 Si 15.4679 6.6978 9.47212 2.34752 3.87099 -1.05414 -6.3676e-06 -2.10314e-06 -2.34e-06
185 Si 17.4014 7.8141 12.6295 4.27918 1.77989 -5.84022 -1.04161e-07 -6.11808e-06 4.60243e-06
186 Si 11.6009 6.6978 0 -0.807508 -1.10137 0.712819 2.67549e-07 -5.70914e-06 -5.44813e-06
187 Si 13.5344 7.8141 3.15737 0.822848 5.32123 -1.94588 6.47177e-06 -2.48132e-06 -7.29892e-06
188 Si 15.4679 8.9304 6.31474 -0.62344 -2.55759 3.70922 -6.36758e-06 1.17569e-05 -2.72792e-06
189 Si 17.4014 10.0467 9.47212 -5.65187 -6.87089 0.118751 -6.84869e-15 -6.05771e-06 -4.76552e-06
190 Si 19.3349 11.163 12.6295 -5.22178 0.917838 -1.74458 6.45914e-06 3.03616e-06 1.01954e-05
191 Si 13.5344 10.0467 0 -1.7454 -4.59526 -5.80206 6.63515e-06 -2.51659e-06 -2.60131e-06
192 Si 15.4679 11.163 3.15737 5.3155 -2.92751 -2.60697 -6.36759e-06 3.03617e-06 -4.21261e-06
193 Si 17.4014 12.2793 6.31474 -0.279002 -2.68981 0.780474 7.90479e-14 -5.9093e-06 -5.63787e-06
194 Si 19.3349 13.3956 9.47212 -0.472779 6.20764 -3.1346 6.36758e-06 3.18457e-06 8.56285e-07
195 Si 21.2684 14.5119 12.6295 4.7779 -0.896872 -5.21573 -6.3676e-06 -2.10314e-06 6.8876e-06
196 Si 15.4679 13.3956 0 0.869889 3.06332 -0.475981 -7.17521e-06 3.12802e-06 6.53189e-07
197 Si 17.4014 14.5119 3.15737 -2.23594 -0.421856 1.05758 -1.04161e-07 -5.53495e-06 -1.03433e-05
198 Si 19.3349 15.6282 6.31474 2.46937 -0.307558 7.03284 6.45915e-06 -2.19892e-06 -2.79899e-06
199 Si 21.2684 16.7445 9.47212 1.49628 -2.38518 -5.93316 -6.47174e-06 1.18488e-05 -2.01369e-06
200 Si 23.2018 17.8608 12.6295 2.89543 -1.61408 -2.96547 -2.08322e-07 -5.94475e-06 4.46258e-06
201 Si 21.2684 5.5815 15.7869 -1.60706 0.522578 -2.49299 2.08323e-07 2.83333e-06 -7.99467e-06
202 Si 23.2018 17.8608 3.15737 -1.37439 5.32831 -10.6008 6.47176e-06 1.16039e-05 -7.15417e-06
203 Si 15.4679 2.2326 6.31474 1.14501 -5.82582 -1.36448 -7.16262e-06 -2.42095e-06 -2.87982e-06
204 Si 27.0688 20.0934 9.47212 -1.14826 -5.69927 7.06977 1.04161e-07 8.12482e-06 -4.49541e-06
205 Si 19.3349 4.4652 12.6295 4.35786 -0.0690503 0.826252 6.47176e-06 -2.42562e-06 6.91546e-06
206 Si 13.5344 3.3489 0 -0.642745 -1.34941 -0.502417 6.57591e-06 2.86661e-06 7.99686e-07
207 Si 15.4679 4.4652 3.15737 0.352865 -6.79873 3.30299 -6.45916e-06 -2.27254e-06 -7.56081e-06
208 Si 17.4014 5.5815 6.31474 -3.62123 4.19393 -0.866947 -4.9738e-14 -4.52181e-07 -2.40116e-06
209 Si 19.3349 6.6978 9.47212 2.04175 2.94323 -4.79178 6.3676e-06 -2.10314e-06 -2.34e-06
210 Si 21.2684 7.8141 12.6295 -1.15297 0.56777 -0.494865 -6.47176e-06 -2.25533e-06 6.97414e-06
211 Si 25.1353 12.2793 15.7869 -2.69124 -3.78027 -0.0665731 7.16262e-06 -2.27254e-06 -2.72335e-06
212 Si 17.4014 7.8141 3.15737 1.96282 2.24283 -2.77855 1.04161e-07 -5.89209e-06 -9.94051e-06
213 Si 19.3349 8.9304 6.31474 3.22055 1.32491 -3.01567 6.36758e-06 1.17569e-05 -2.72792e-06
214 Si 21.2684 10.0467 9.47212 -1.19254 -0.00110523 -0.762276 -6.3676e-06 -2.42095e-06 -2.19394e-06
215 Si 23.2018 11.163 12.6295 0.945053 0.577266 1.38478 7.11931e-14 -6.0059e-07 7.62381e-06
216 Si 27.0688 15.6282 15.7869 -2.86916 6.69913 0.607881 2.08323e-07 -5.88742e-06 -4.98485e-06
217 Si 19.3349 11.163 3.15737 -2.12587 -0.501953 -0.126307 6.36759e-06 3.03617e-06 -4.21261e-06
218 Si 21.2684 12.2793 6.31474 -2.29043 -3.7032 3.86384 -6.3676e-06 -2.27254e-06 -3.06629e-06
219 Si 23.2018 13.3956 9.47212 0.859768 0.250682 -1.88093 7.21818e-14 -4.52181e-07 -1.71529e-06
220 Si 25.1353 14.5119 12.6295 -1.36236 0.755196 -0.853415 6.3676e-06 -2.10314e-06 6.8876e-06
221 Si 19.3349 13.3956 0 -0.0171289 5.09128 -0.374622 6.47174e-06 3.07158e-06 5.48348e-07
222 Si 21.2684 14.5119 3.15737 -1.17468 -2.61713 1.08259 -6.47177e-06 -2.01129e-06 -7.49204e-06
223 Si 23.2018 15.6282 6.31474 -0.937231 2.44064 3.27307 -1.04161e-07 -5.77913e-06 -5.51041e-06
224 Si 25.1353 16.7445 9.47212 4.06287 -0.160141 2.6351 6.45914e-06 1.19053e-05 -2.15354e-06
225 Si 27.0688 17.8608 12.6295 2.12052 1.58827 -0.969309 -6.57592e-06 -2.19511e-06 7.11398e-06
226 Si 15.4679 0 0 -1.08315 0.993614 -0.0837513 -7.74931e-06 6.23476e-06 -5.58949e-06
227 Si 27.0688 17.8608 3.15737 5.20298 -3.90828 -1.42795 1.63388e-07 8.00703e-06 -9.4677e-06
228 Si 19.3349 2.2326 6.31474 -1.43974 -0.409687 -2.1508 6.57592e-06 -2.53861e-06 -2.96302e-06
229 Si 30.9358 20.0934 9.47212 -0.141677 1.47188 -3.18392 -7.05844e-06 1.17522e-05 -2.16024e-06
230 Si 23.2018 4.4652 12.6295 1.32743 -4.11472 3.97706 5.92264e-08 -6.13543e-06 4.70186e-06
231 Si 27.0688 8.9304 15.7869 0.096813 0.656759 -0.370779 2.67549e-07 -4.00434e-07 -2.09993e-06
232 Si 19.3349 4.4652 3.15737 -0.775689 -4.27515 -1.17559 6.57593e-06 -2.3902e-06 -7.64401e-06
233 Si 21.2684 5.5815 6.31474 -1.83395 -1.31259 7.36939 -6.36758e-06 3.18457e-06 1.7041e-07
234 Si 23.2018 6.6978 9.47212 -0.364801 -0.137087 -4.07572 5.92264e-08 -5.70929e-06 -4.88993e-06
235 Si 25.1353 7.8141 12.6295 1.41931 -0.885569 1.4713 6.66747e-06 -2.48598e-06 6.99087e-06
236 Si 19.3349 6.6978 0 -0.782965 -2.12167 5.25305 6.63515e-06 -2.42081e-06 -2.82819e-06
237 Si 21.2684 7.8141 3.15737 3.52564 -2.4716 -3.31757 -6.36761e-06 -2.36832e-06 -7.33392e-06
238 Si 23.2018 8.9304 6.31474 -0.729164 -0.369058 0.543064 5.9226e-08 8.15077e-06 -5.27785e-06
239 Si 25.1353 10.0467 9.47212 0.616926 -2.14492 -1.33472 6.57592e-06 -2.53861e-06 -2.27714e-06
240 Si 27.0688 11.163 12.6295 0.0171458 -0.46987 0.787855 -6.36758e-06 3.03616e-06 1.01954e-05
241 Si 21.2684 10.0467 0 -0.408754 -0.330474 2.12267 -7.05846e-06 -2.48132e-06 -2.46147e-06
242 Si 23.2018 11.163 3.15737 -3.29405 0.53778 -0.5108 5.92263e-08 -5.69984e-07 -6.76254e-06
243 Si 25.1353 12.2793 6.31474 -2.53177 0.141056 1.77551 6.57592e-06 -2.3902e-06 -3.14949e-06
244 Si 27.0688 13.3956 9.47212 -3.26663 0.879069 3.53786 -6.36758e-06 3.18457e-06 8.56285e-07
245 Si 29.0023 14.5119 12.6295 -6.73775 -0.641597 -3.32892 -4.4935e-08 -5.82229e-06 4.4376e-06
246 Si 23.2018 13.3956 0 0.35664 -4.74062 -7.06626 5.92261e-08 -2.52024e-07 -2.21142e-06
247 Si 25.1353 14.5119 3.15737 -3.74442 1.81763 3.83584 6.66748e-06 -2.0724e-06 -7.71509e-06
248 Si 27.0688 15.6282 6.31474 -2.144 6.20257 0.768302 -6.47176e-06 -2.25547e-06 -2.65914e-06
249 Si 29.0023 16.7445 9.47212 4.68621 0.407544 0.142351 -4.49352e-08 8.35573e-06 -4.84331e-06
250 Si 30.9358 17.8608 12.6295 0.984651 -2.24043 -3.53408 6.75903e-06 -2.36921e-06 6.99087e-06
ITEM: TIMESTEP
100
ITEM: NUMBER OF ATOMS
250
ITEM: BOX BOUNDS xy xz yz pp pp pp
6.3883954041505084e-02 3.8478095131267281e+01 9.6035530426544060e+00
5.5325126443410734e-02 2.2233779455927611e+01 9.6035530426544060e+00
5.2161031051601081e-02 1.5734696968948390e+01 5.5446135823710581e+00
ITEM: ATOMS id element x y z vx vy vz fx fy fz
1 Si 1.94311 1.14745 0.736006 -0.291634 -1.45252 2.31942 0.228533 0.312322 0.129917
2 Si 3.94197 2.31172 4.00723 1.32738 -0.611996 0.918821 -0.237998 -0.490932 -0.337111
3 Si 5.87145 3.33786 7.17481 2.00317 -1.63578 -0.729622 0.10501 -0.0184959 -0.121867
4 Si 7.81846 4.38335 10.3676 0.545522 -1.8335 2.11041 -0.30922 0.36008 0.192981
5 Si 9.41146 5.56979 13.2956 -0.795094 1.72181 -2.91963 0.201873 -0.0094841 0.205623
6 Si 3.82586 4.57852 0.813143 -2.01743 2.17315 -1.8377 0.18738 -0.00193604 -0.336071
7 Si 5.66149 5.60672 4.0509 0.669805 -0.188426 0.814753 0.568279 -0.142849 -0.28814
8 Si 7.88466 6.59419 7.13846 -0.184262 4.24515 1.52831 -0.499904 0.0828168 -0.0183865
9 Si 9.68236 7.81175 10.2742 -0.55193 0.695845 2.63752 0.357201 0.277507 -0.0342226
10 Si 11.541 8.87168 13.32 -1.8629 1.54969 -0.0595816 -0.247195 -0.15452 -0.39837
11 Si 5.86033 7.82552 0.928678 0.884775 0.831477 1.72393 -0.10164 0.0331709 -0.45728
12 Si 7.90854 8.92992 3.98829 1.00887 3.35356 -0.396387 -0.451409 -0.205562 -0.308571
13 Si 9.55089 9.99248 7.11651 0.950039 0.774974 3.58437 0.367835 -0.0305417 0.0806056
14 Si 11.5006 11.2896 10.363 -2.70074 -3.06701 0.166376 0.103021 0.09602 -0.669498
15 Si 13.5036 12.2439 13.2738 0.270646 1.10253 -0.0269695 0.00535741 -0.715056 0.127289
16 Si 7.74236 11.4047 0.982342 -2.30533 0.80798 1.42644 -0.242455 -0.662587 -0.0250534
17 Si 9.76051 12.0791 4.09257 1.16293 0.890345 1.82044 -0.352294 0.474265 -0.309124
18 Si 11.5794 13.3434 6.99781 -3.5798 1.64695 5.10079 0.100044 0.226239 0.0351776
19 Si 13.5627 14.4776 10.2515 2.85156 0.0709636 -1.39917 -0.203879 0.306674 -0.621821
20 Si 15.4197 15.5097 13.4289 -1.87192 0.775751 -0.757765 0.38315 0.439367 0.23044
21 Si 9.71842 14.4462 0.859961 3.82702 1.10784 0.871151 -0.387411 -0.124262 0.205949
22 Si 11.7115 15.5485 3.90026 -0.509776 -3.59663 -3.20004 -0.264436 0.292539 0.17886
23 Si 13.5667 16.7513 7.24153 -1.45597 -0.767931 1.42929 0.325219 0.122101 -0.0828551
24 Si 15.603 17.8336 10.1716 -0.696496 1.13888 4.07449 -0.594968 -0.00732322 0.286903
25 Si 17.3286 18.8108 13.5637 -5.83897 1.75636 4.4202 -0.442956 -0.0804238 -0.278887
26 Si 5.68249 1.18871 0.720256 -2.20087 0.10608 0.7559 -0.166783 0.217723 0.101767
27 Si 7.67749 2.19793 3.93766 -2.11519 0.0619418 0.738187 -0.238898 0.816532 0.458543
28 Si 9.84544 3.43149 7.20001 1.04163 1.83069 2.17122 -0.265669 -0.353712 -0.651102
29 Si 11.5467 4.31617 10.2924 -2.70876 1.10116 1.83832 0.0931607 0.143134 -0.144381
30 Si 13.3145 5.61036 13.1901 -0.93787 4.9892 -2.96832 -0.394183 -0.357252 0.381315
31 Si 7.63165 4.33946 0.891319 -1.91497 3.11209 -1.22507 0.857236 0.231343 0.234432
32 Si 9.62178 5.59558 4.0298 1.02683 -1.9069 0.0795841 -0.500296 0.0512457 -0.409027
33 Si 11.7103 6.75382 7.24036 -0.971612 -1.95899 2.68509 0.137992 0.214561 0.133999
34 Si 13.5533 7.7975 10.2836 0.877837 0.686139 1.26587 0.0391624 -0.300698 -0.679642
35 Si 15.446 9.04075 13.3135 0.872499 -1.76887 -0.774264 -0.0896574 -0.0523225 -0.0131532
36 Si 9.66612 7.90772 0.797271 0.81633 -2.48618 0.590735 0.124988 -0.240524 0.042438
37 Si 11.6544 8.85938 4.15638 4.44263 2.28773 -2.13356 0.00288075 -0.882096 -0.399865
38 Si 13.5153 10.1656 7.14261 0.777244 1.47759 0.315461 -0.0973885 -0.653178 0.0809058
39 Si 15.397 11.1353 10.1326 1.08406 1.06187 0.107571 -0.357444 -0.257607 0.0344092
40 Si 17.3136 12.3536 13.5231 -2.42321 -0.353591 -0.317582 -0.307942 -0.138782 0.165816
41 Si 11.6368 11.0801 0.953452 4.06568 -1.93782 4.38223 -0.33499 -0.0660777 -0.914423
42 Si 13.6375 12.175 3.84649 5.44094 4.88463 1.24396 -0.0299034 0.169006 -0.549061
43 Si 15.3751 13.3484 6.98264 2.66279 2.83962 -0.608275 0.29485 0.208726 0.339113
44 Si 17.284 14.4171 10.3295 -1.7019 1.71134 -0.600641 -0.179014 -0.542835 -0.036764
45 Si 19.5073 15.5538 13.4181 4.51857 0.164655 2.19284 -0.764611 -0.371426 -0.0899537
46 Si 13.5713 14.5682 0.813986 1.40911 0.244448 0.638151 -0.471083 -0.464611 -0.142445
47 Si 15.4765 15.6965 4.12657 1.50576 0.158097 -1.33758 -0.18506 -0.42808 -0.444411
48 Si 17.4478 16.8012 7.22672 2.51982 -3.42763 1.04833 -0.286378 0.277407 -0.953142
49 Si 19.284 17.6835 10.4427 -0.937003 -1.1659 1.74135 0.324006 0.091284 -0.00671451
50 Si 21.349 18.938 13.4105 4.38234 4.36797 1.51812 -0.967378 -0.485261 0.295824
51 Si 9.55376 1.32407 0.845264 0.528112 -0.60018 -0.888095 0.709001 0.584858 -0.578725
52 Si 11.5275 2.30731 4.01565 3.52384 3.19139 -1.97092 -0.043418 -0.146818 0.744783
53 Si 13.7416 3.45371 7.17356 0.150326 -1.82666 -6.02241 -0.525367 -0.176535 0.479325
54 Si 15.5572 4.41227 10.3907 1.06251 2.42125 -0.134979 -0.335981 0.670428 -0.358591
55 Si 17.3034 5.62304 13.3907 1.61631 1.10965 4.86774 -0.185425 0.255846 -0.356219
56 Si 11.6459 4.59773 0.971613 -2.06284 -3.29476 -1.28036 -0.024453 0.0318926 -0.428265
57 Si 13.5858 5.53739 3.87394 2.72497 4.09927 -2.39933 -0.187162 0.749287 0.306215
58 Si 15.3784 6.74309 7.01764 0.251186 -1.72079 0.557881 0.252027 0.136549 0.709556
59 Si 17.3944 7.78757 10.3615 2.78151 -3.31082 -5.32771 -0.549013 0.0546734 -0.0353685
60 Si 19.312 9.14219 13.3212 0.0274171 -0.55034 1.58354 0.0756015 -0.596848 0.626674
61 Si 13.6372 7.78977 0.830997 -2.13666 -1.7757 -0.498843 -0.212343 0.486939 0.0502201
62 Si 15.5101 8.94391 3.8962 0.43961 -1.20326 3.89497 -0.191702 -0.157382 -0.383982
63 Si 17.4423 9.82758 6.94628 -0.366797 0.285628 0.481401 0.486897 -0.0372101 0.402278
64 Si 19.0192 11.1595 10.1918 -0.239362 -1.44018 -3.06877 -0.102535 0.233759 0.140101
65 Si 21.1348 12.1052 13.3965 -0.721572 2.52668 -0.708978 0.512821 0.152326 0.756426
66 Si 15.1936 11.1958 0.762551 2.74988 2.38806 -1.49104 0.121168 0.390404 -0.0258783
67 Si 17.4165 12.2549 4.06714 -1.6799 0.0175771 -1.70071 0.266147 0.507341 -0.386601
68 Si 19.1456 13.2533 7.11334 0.919609 -0.177237 -2.5547 0.357126 0.33892 0.362532
69 Si 21.2124 14.3479 10.2319 -0.728388 -2.72841 -2.01883 0.184184 -0.155825 0.807599
70 Si 23.155 15.6423 13.2017 -1.54699 -1.73401 0.272654 0.603566 -0.0606519 0.276074
71 Si 17.3844 14.6756 0.898778 -0.0495905 -2.94872 1.6107 -0.411754 -0.319049 0.270343