 vasp.6.1.2 22Jul20 (build Dec 10 2020 10:33:42) complex                        
  
 executed on             LinuxIFC date 2022.09.02  13:02:13
 running on   96 total cores
 distrk:  each k-point on   96 cores,    1 groups
 distr:  one band on NCORE=  24 cores,    4 groups


--------------------------------------------------------------------------------------------------------


 INCAR:
 POTCAR:    PAW_PBE Na_pv 19Sep2006               
 POTCAR:    PAW_PBE Cl 06Sep2000                  
 WARNING: For LVTOT=.TRUE., VASP.5.x writes the TOTAL local potential to the
     file LOCPOT. If you want only the Hartree contributions, use LVHAR=.TRUE.
     instead. 

 -----------------------------------------------------------------------------
|                                                                             |
|           W    W    AA    RRRRR   N    N  II  N    N   GGGG   !!!           |
|           W    W   A  A   R    R  NN   N  II  NN   N  G    G  !!!           |
|           W    W  A    A  R    R  N N  N  II  N N  N  G       !!!           |
|           W WW W  AAAAAA  RRRRR   N  N N  II  N  N N  G  GGG   !            |
|           WW  WW  A    A  R   R   N   NN  II  N   NN  G    G                |
|           W    W  A    A  R    R  N    N  II  N    N   GGGG   !!!           |
|                                                                             |
|     For optimal performance we recommend to set                             |
|       NCORE = 4 - approx SQRT(number of cores).                             |
|     NCORE specifies how many cores store one orbital (NPAR=cpu/NCORE).      |
|     This setting can greatly improve the performance of VASP for DFT.       |
|     The default, NCORE=1 might be grossly inefficient on modern             |
|     multi-core architectures or massively parallel machines. Do your        |
|     own testing!!!!                                                         |
|     Unfortunately you need to use the default for GW and RPA                |
|     calculations (for HF NCORE is supported but not extensively tested      |
|     yet).                                                                   |
|                                                                             |
 -----------------------------------------------------------------------------

 POTCAR:    PAW_PBE Na_pv 19Sep2006               
   VRHFIN =Na: p6s1                                                                                 
   LEXCH  = PE                                                                                      
   EATOM  =   766.0439 eV,   56.3026 Ry                                                             
                                                                                                    
   TITEL  = PAW_PBE Na_pv 19Sep2006                                                                 
   LULTRA =        F    use ultrasoft PP ?                                                          
   IUNSCR =        1    unscreen: 0-lin 1-nonlin 2-no                                               
   RPACOR =    1.800    partial core radius                                                         
   POMASS =   22.990; ZVAL   =    7.000    mass and valenz                                          
   RCORE  =    2.200    outmost cutoff radius                                                       
   RWIGS  =    2.200; RWIGS  =    1.164    wigner-seitz radius (au A)                               
   ENMAX  =  259.561; ENMIN  =  194.671 eV                                                          
   ICORE  =        2    local potential                                                             
   LCOR   =        T    correct aug charges                                                         
   LPAW   =        T    paw PP                                                                      
   EAUG   =  368.056                                                                                
   DEXC   =    0.000                                                                                
   RMAX   =    2.245    core radius for proj-oper                                                   
   RAUG   =    1.300    factor for augmentation sphere                                              
   RDEP   =    2.259    radius for radial grids                                                     
   RDEPT  =    1.738    core radius for aug-charge                                                  
                                                                                                    
   Atomic configuration                                                                             
    5 entries                                                                                       
     n  l   j            E        occ.                                                              
     1  0  0.50     -1033.6933   2.0000                                                             
     2  0  0.50       -56.7526   2.0000                                                             
     2  1  1.50       -28.6721   6.0000                                                             
     3  0  0.50        -2.7440   1.0000                                                             
     3  2  1.50        -1.3606   0.0000                                                             
   Description                                                                                      
     l       E           TYP  RCUT    TYP  RCUT                                                     
     1    -28.6720912     23  2.000                                                                 
     1      6.8029130     23  2.000                                                                 
     0     -2.7439560     23  2.200                                                                 
     0     34.0145650     23  2.200                                                                 
     2     -1.3605826     23  2.200                                                                 
  local pseudopotential read in
  partial core-charges read in
  partial kinetic energy density read in
  atomic valenz-charges read in
  non local Contribution for L=           1  read in
    real space projection operators read in
  non local Contribution for L=           1  read in
    real space projection operators read in
  non local Contribution for L=           0  read in
    real space projection operators read in
  non local Contribution for L=           0  read in
    real space projection operators read in
    PAW grid and wavefunctions read in
 
   number of l-projection  operators is LMAX  =           4
   number of lm-projection operators is LMMAX =           8
 
 POTCAR:    PAW_PBE Cl 06Sep2000                  
   VRHFIN =Cl: s2p5                                                                                 
   LEXCH  = PE                                                                                      
   EATOM  =   409.7259 eV,   30.1140 Ry                                                             
                                                                                                    
   TITEL  = PAW_PBE Cl 06Sep2000                                                                    
   LULTRA =        F    use ultrasoft PP ?                                                          
   IUNSCR =        1    unscreen: 0-lin 1-nonlin 2-no                                               
   RPACOR =    1.500    partial core radius                                                         
   POMASS =   35.453; ZVAL   =    7.000    mass and valenz                                          
   RCORE  =    1.900    outmost cutoff radius                                                       
   RWIGS  =    2.100; RWIGS  =    1.111    wigner-seitz radius (au A)                               
   ENMAX  =  262.472; ENMIN  =  196.854 eV                                                          
   ICORE  =        2    local potential                                                             
   LCOR   =        T    correct aug charges                                                         
   LPAW   =        T    paw PP                                                                      
   EAUG   =  356.192                                                                                
   DEXC   =    0.000                                                                                
   RMAX   =    1.945    core radius for proj-oper                                                   
   RAUG   =    1.300    factor for augmentation sphere                                              
   RDEP   =    2.020    radius for radial grids                                                     
   RDEPT  =    1.678    core radius for aug-charge                                                  
                                                                                                    
   Atomic configuration                                                                             
    6 entries                                                                                       
     n  l   j            E        occ.                                                              
     1  0  0.50     -2751.1850   2.0000                                                             
     2  0  0.50      -252.6861   2.0000                                                             
     2  1  1.50      -191.6157   6.0000                                                             
     3  0  0.50       -20.6916   2.0000                                                             
     3  1  0.50        -8.5949   5.0000                                                             
     3  2  1.50        -8.1635   0.0000                                                             
   Description                                                                                      
     l       E           TYP  RCUT    TYP  RCUT                                                     
     0    -20.6915656     23  1.900                                                                 
     0    -22.0521482     23  1.900                                                                 
     1     -8.5948577     23  1.900                                                                 
     1     -5.3847331     23  1.900                                                                 
     2     -8.1634956     23  1.900                                                                 
  local pseudopotential read in
  partial core-charges read in
  partial kinetic energy density read in
  atomic valenz-charges read in
  non local Contribution for L=           0  read in
    real space projection operators read in
  non local Contribution for L=           0  read in
    real space projection operators read in
  non local Contribution for L=           1  read in
    real space projection operators read in
  non local Contribution for L=           1  read in
    real space projection operators read in
    PAW grid and wavefunctions read in
 
   number of l-projection  operators is LMAX  =           4
   number of lm-projection operators is LMMAX =           8
 
 -----------------------------------------------------------------------------
|                                                                             |
|               ----> ADVICE to this user running VASP <----                  |
|                                                                             |
|     You enforced a specific xc type in the INCAR file but a different       |
|     type was found in the POTCAR file.                                      |
|     I HOPE YOU KNOW WHAT YOU ARE DOING!                                     |
|                                                                             |
 -----------------------------------------------------------------------------

  PAW_PBE Na_pv 19Sep2006               :
 energy of atom  1       EATOM= -766.0439
 kinetic energy error for atom=    0.0008 (will be added to EATOM!!)
  PAW_PBE Cl 06Sep2000                  :
 energy of atom  2       EATOM= -409.7259
 kinetic energy error for atom=    0.0011 (will be added to EATOM!!)
 
 
 POSCAR: Na4 Cl4
  positions in direct lattice
  No initial velocities read in
 exchange correlation table for  LEXCH =       14
   RHO(1)=    0.500       N(1)  =     2000
   RHO(2)=  100.500       N(2)  =     4000

 VTST: version 3.2, (02/03/18)

 CHAIN: initializing optimizer
 
 OPT: Using VASP Conjugate-Gradient optimizer
 CHAIN: Read ICHAIN            0
 
 POSCAR: Na4 Cl4
  positions in direct lattice
  No initial velocities read in
 


--------------------------------------------------------------------------------------------------------


 ion  position               nearest neighbor table
   1  0.000  0.000  0.000-
   2  0.000  0.500  0.500-
   3  0.500  0.000  0.500-
   4  0.500  0.500  0.000-
   5  0.502  0.000  0.000-
   6  0.500  0.500  0.500-
   7  0.000  0.000  0.500-
   8  0.000  0.500  0.000-
 
  LATTYP: Found a simple cubic cell.
 ALAT       =     5.6916940000
  
  Lattice vectors:
  
 A1 = (   5.6916940000,   0.0000000000,   0.0000000000)
 A2 = (   0.0000000000,   5.6916940000,   0.0000000000)
 A3 = (   0.0000000000,   0.0000000000,   5.6916940000)


Analysis of symmetry for initial positions (statically):
=====================================================================
 Subroutine PRICEL returns:
 Original cell was already a primitive cell.
 

 Routine SETGRP: Setting up the symmetry group for a 
 simple cubic supercell.


 Subroutine GETGRP returns: Found  8 space group operations
 (whereof  8 operations were pure point group operations)
 out of a pool of 48 trial point group operations.


The static configuration has the point symmetry C_4v.


Analysis of symmetry for dynamics (positions and initial velocities):
=====================================================================
 Subroutine PRICEL returns:
 Original cell was already a primitive cell.
 

 Routine SETGRP: Setting up the symmetry group for a 
 simple cubic supercell.


 Subroutine GETGRP returns: Found  8 space group operations
 (whereof  8 operations were pure point group operations)
 out of a pool of 48 trial point group operations.


The dynamic configuration has the point symmetry C_4v.


Analysis of structural, dynamic, and magnetic symmetry:
=====================================================================
 Subroutine PRICEL returns:
 Original cell was already a primitive cell.
 

 Routine SETGRP: Setting up the symmetry group for a 
 simple cubic supercell.


 Subroutine GETGRP returns: Found  8 space group operations
 (whereof  8 operations were pure point group operations)
 out of a pool of 48 trial point group operations.


The magnetic configuration has the point symmetry C_4v.


 Subroutine INISYM returns: Found  8 space group operations
 (whereof  8 operations are pure point group operations),
 and found     1 'primitive' translations


----------------------------------------------------------------------------------------

                                     Primitive cell                                     

  volume of cell :     184.3846

  direct lattice vectors                    reciprocal lattice vectors
     5.691694000  0.000000000  0.000000000     0.175694617  0.000000000  0.000000000
     0.000000000  5.691694000  0.000000000     0.000000000  0.175694617  0.000000000
     0.000000000  0.000000000  5.691694000     0.000000000  0.000000000  0.175694617

  length of vectors
     5.691694000  5.691694000  5.691694000     0.175694617  0.175694617  0.175694617

  position of ions in fractional coordinates (direct lattice)
     0.000000000  0.000000000  0.000000000
     0.000000000  0.500000000  0.500000000
     0.500000000  0.000000000  0.500000000
     0.500000000  0.500000000  0.000000000
     0.501756946  0.000000000  0.000000000
     0.500000000  0.500000000  0.500000000
     0.000000000  0.000000000  0.500000000
     0.000000000  0.500000000  0.000000000

  ion indices of the primitive-cell ions
   primitive index   ion index
                 1           1
                 2           2
                 3           3
                 4           4
                 5           5
                 6           6
                 7           7
                 8           8

----------------------------------------------------------------------------------------

 
 
 KPOINTS: pymatgen with grid density = 7000 / numb

Automatic generation of k-mesh.
Space group operators:
 irot       det(A)        alpha          n_x          n_y          n_z        tau_x        tau_y        tau_z
    1     1.000000     0.000000     1.000000     0.000000     0.000000     0.000000     0.000000     0.000000
    2    -1.000000   180.000000     0.000000     0.707107     0.707107     0.000000     0.000000     0.000000
    3    -1.000000   180.000000     0.000000     0.000000     1.000000     0.000000     0.000000     0.000000
    4     1.000000    90.000000    -1.000000     0.000000     0.000000     0.000000     0.000000     0.000000
    5     1.000000   180.000000     1.000000     0.000000     0.000000     0.000000     0.000000     0.000000
    6     1.000000    90.000000     1.000000     0.000000     0.000000     0.000000     0.000000     0.000000
    7    -1.000000   180.000000     0.000000     1.000000     0.000000     0.000000     0.000000     0.000000
    8    -1.000000   180.000000     0.000000    -0.707107     0.707107     0.000000     0.000000     0.000000
 
 Subroutine IBZKPT returns following result:
 ===========================================
 
 Found     75 irreducible k-points:
 
 Following reciprocal coordinates:
            Coordinates               Weight
  0.000000  0.000000  0.000000      1.000000
  0.111111  0.000000  0.000000      2.000000
  0.000000  0.111111  0.000000      4.000000
  0.222222  0.000000  0.000000      2.000000
  0.000000  0.222222  0.000000      4.000000
  0.333333  0.000000  0.000000      2.000000
  0.000000  0.333333  0.000000      4.000000
  0.444444  0.000000  0.000000      2.000000
  0.000000  0.444444  0.000000      4.000000
  0.111111  0.111111  0.000000      8.000000
  0.000000  0.111111  0.111111      4.000000
  0.222222  0.111111  0.000000      8.000000
  0.000000  0.222222  0.111111      8.000000
  0.111111  0.000000  0.222222      8.000000
  0.333333  0.111111  0.000000      8.000000
  0.000000  0.333333  0.111111      8.000000
  0.111111  0.000000  0.333333      8.000000
  0.444444  0.111111  0.000000      8.000000
  0.000000  0.444444  0.111111      8.000000
  0.111111  0.000000  0.444444      8.000000
  0.222222  0.222222  0.000000      8.000000
  0.000000  0.222222  0.222222      4.000000
  0.333333  0.222222  0.000000      8.000000
  0.000000  0.333333  0.222222      8.000000
  0.222222  0.000000  0.333333      8.000000
  0.444444  0.222222  0.000000      8.000000
  0.000000  0.444444  0.222222      8.000000
  0.222222  0.000000  0.444444      8.000000
  0.333333  0.333333  0.000000      8.000000
  0.000000  0.333333  0.333333      4.000000
  0.444444  0.333333  0.000000      8.000000
  0.000000  0.444444  0.333333      8.000000
  0.333333  0.000000  0.444444      8.000000
  0.444444  0.444444  0.000000      8.000000
  0.000000  0.444444  0.444444      4.000000
  0.111111  0.111111  0.111111      8.000000
  0.222222  0.111111  0.111111      8.000000
  0.111111  0.222222  0.111111     16.000000
  0.333333  0.111111  0.111111      8.000000
  0.111111  0.333333  0.111111     16.000000
  0.444444  0.111111  0.111111      8.000000
  0.111111  0.444444  0.111111     16.000000
  0.222222  0.222222  0.111111     16.000000
  0.111111  0.222222  0.222222      8.000000
  0.333333  0.222222  0.111111     16.000000
  0.111111  0.333333  0.222222     16.000000
  0.222222  0.111111  0.333333     16.000000
  0.444444  0.222222  0.111111     16.000000
  0.111111  0.444444  0.222222     16.000000
  0.222222  0.111111  0.444444     16.000000
  0.333333  0.333333  0.111111     16.000000
  0.111111  0.333333  0.333333      8.000000
  0.444444  0.333333  0.111111     16.000000
  0.111111  0.444444  0.333333     16.000000
  0.333333  0.111111  0.444444     16.000000
  0.444444  0.444444  0.111111     16.000000
  0.111111  0.444444  0.444444      8.000000
  0.222222  0.222222  0.222222      8.000000
  0.333333  0.222222  0.222222      8.000000
  0.222222  0.333333  0.222222     16.000000
  0.444444  0.222222  0.222222      8.000000
  0.222222  0.444444  0.222222     16.000000
  0.333333  0.333333  0.222222     16.000000
  0.222222  0.333333  0.333333      8.000000
  0.444444  0.333333  0.222222     16.000000
  0.222222  0.444444  0.333333     16.000000
  0.333333  0.222222  0.444444     16.000000
  0.444444  0.444444  0.222222     16.000000
  0.222222  0.444444  0.444444      8.000000
  0.333333  0.333333  0.333333      8.000000
  0.444444  0.333333  0.333333      8.000000
  0.333333  0.444444  0.333333     16.000000
  0.444444  0.444444  0.333333     16.000000
  0.333333  0.444444  0.444444      8.000000
  0.444444  0.444444  0.444444      8.000000
 
 Following cartesian coordinates:
            Coordinates               Weight
  0.000000  0.000000  0.000000      1.000000
  0.019522  0.000000  0.000000      2.000000
  0.000000  0.019522  0.000000      4.000000
  0.039043  0.000000  0.000000      2.000000
  0.000000  0.039043  0.000000      4.000000
  0.058565  0.000000  0.000000      2.000000
  0.000000  0.058565  0.000000      4.000000
  0.078086  0.000000  0.000000      2.000000
  0.000000  0.078086  0.000000      4.000000
  0.019522  0.019522  0.000000      8.000000
  0.000000  0.019522  0.019522      4.000000
  0.039043  0.019522  0.000000      8.000000
  0.000000  0.039043  0.019522      8.000000
  0.019522  0.000000  0.039043      8.000000
  0.058565  0.019522  0.000000      8.000000
  0.000000  0.058565  0.019522      8.000000
  0.019522  0.000000  0.058565      8.000000
  0.078086  0.019522  0.000000      8.000000
  0.000000  0.078086  0.019522      8.000000
  0.019522  0.000000  0.078086      8.000000
  0.039043  0.039043  0.000000      8.000000
  0.000000  0.039043  0.039043      4.000000
  0.058565  0.039043  0.000000      8.000000
  0.000000  0.058565  0.039043      8.000000
  0.039043  0.000000  0.058565      8.000000
  0.078086  0.039043  0.000000      8.000000
  0.000000  0.078086  0.039043      8.000000
  0.039043  0.000000  0.078086      8.000000
  0.058565  0.058565  0.000000      8.000000
  0.000000  0.058565  0.058565      4.000000
  0.078086  0.058565  0.000000      8.000000
  0.000000  0.078086  0.058565      8.000000
  0.058565  0.000000  0.078086      8.000000
  0.078086  0.078086  0.000000      8.000000
  0.000000  0.078086  0.078086      4.000000
  0.019522  0.019522  0.019522      8.000000
  0.039043  0.019522  0.019522      8.000000
  0.019522  0.039043  0.019522     16.000000
  0.058565  0.019522  0.019522      8.000000
  0.019522  0.058565  0.019522     16.000000
  0.078086  0.019522  0.019522      8.000000
  0.019522  0.078086  0.019522     16.000000
  0.039043  0.039043  0.019522     16.000000
  0.019522  0.039043  0.039043      8.000000
  0.058565  0.039043  0.019522     16.000000
  0.019522  0.058565  0.039043     16.000000
  0.039043  0.019522  0.058565     16.000000
  0.078086  0.039043  0.019522     16.000000
  0.019522  0.078086  0.039043     16.000000
  0.039043  0.019522  0.078086     16.000000
  0.058565  0.058565  0.019522     16.000000
  0.019522  0.058565  0.058565      8.000000
  0.078086  0.058565  0.019522     16.000000
  0.019522  0.078086  0.058565     16.000000
  0.058565  0.019522  0.078086     16.000000
  0.078086  0.078086  0.019522     16.000000
  0.019522  0.078086  0.078086      8.000000
  0.039043  0.039043  0.039043      8.000000
  0.058565  0.039043  0.039043      8.000000
  0.039043  0.058565  0.039043     16.000000
  0.078086  0.039043  0.039043      8.000000
  0.039043  0.078086  0.039043     16.000000
  0.058565  0.058565  0.039043     16.000000
  0.039043  0.058565  0.058565      8.000000
  0.078086  0.058565  0.039043     16.000000
  0.039043  0.078086  0.058565     16.000000
  0.058565  0.039043  0.078086     16.000000
  0.078086  0.078086  0.039043     16.000000
  0.039043  0.078086  0.078086      8.000000
  0.058565  0.058565  0.058565      8.000000
  0.078086  0.058565  0.058565      8.000000
  0.058565  0.078086  0.058565     16.000000
  0.078086  0.078086  0.058565     16.000000
  0.058565  0.078086  0.078086      8.000000
  0.078086  0.078086  0.078086      8.000000
 


--------------------------------------------------------------------------------------------------------




 Dimension of arrays:
   k-points           NKPTS =     75   k-points in BZ     NKDIM =     75   number of bands    NBANDS=     36
   number of dos      NEDOS =    301   number of ions     NIONS =      8
   non local maximal  LDIM  =      4   non local SUM 2l+1 LMDIM =      8
   total plane-waves  NPLWV = 125000
   max r-space proj   IRMAX =      1   max aug-charges    IRDMAX=  19686
   dimension x,y,z NGX =    50 NGY =   50 NGZ =   50
   dimension x,y,z NGXF=   100 NGYF=  100 NGZF=  100
   support grid    NGXF=   100 NGYF=  100 NGZF=  100
   ions per type =               4   4
   NGX,Y,Z   is equivalent  to a cutoff of  14.60, 14.60, 14.60 a.u.
   NGXF,Y,Z  is equivalent  to a cutoff of  29.21, 29.21, 29.21 a.u.

 SYSTEM =  unknown system                          
 POSCAR =  Na4 Cl4                                 

 Startparameter for this run:
   NWRITE =      2    write-flag & timer
   PREC   = accura    normal or accurate (medium, high low for compatibility)
   ISTART =      0    job   : 0-new  1-cont  2-samecut
   ICHARG =      2    charge: 1-file 2-atom 10-const
   ISPIN  =      2    spin polarized calculation?
   LNONCOLLINEAR =      F non collinear calculations
   LSORBIT =      F    spin-orbit coupling
   INIWAV =      1    electr: 0-lowe 1-rand  2-diag
   LASPH  =      T    aspherical Exc in radial PAW
   METAGGA=      F    non-selfconsistent MetaGGA calc.

 Electronic Relaxation 1
   ENCUT  =  700.0 eV  51.45 Ry    7.17 a.u.  12.28 12.28 12.28*2*pi/ulx,y,z
   ENINI  =  700.0     initial cutoff
   ENAUG  = 1360.0 eV  augmentation charge cutoff
   NELM   =    200;   NELMIN=  2; NELMDL= -5     # of ELM steps 
   EDIFF  = 0.1E-06   stopping-criterion for ELM
   LREAL  =      F    real-space projection
   NLSPLINE    = F    spline interpolate recip. space projectors
   LCOMPAT=      F    compatible to vasp.4.4
   GGA_COMPAT  = T    GGA compatible to vasp.4.4-vasp.4.6
   LMAXPAW     = -100 max onsite density
   LMAXMIX     =    2 max onsite mixed and CHGCAR
   VOSKOWN=      0    Vosko Wilk Nusair interpolation
   ROPT   =    0.00000   0.00000
 Ionic relaxation
   EDIFFG = 0.1E-05   stopping-criterion for IOM
   NSW    =      0    number of steps for IOM
   NBLOCK =      1;   KBLOCK =      1    inner block; outer block 
   IBRION =     -1    ionic relax: 0-MD 1-quasi-New 2-CG
   NFREE  =      1    steps in history (QN), initial steepest desc. (CG)
   ISIF   =      3    stress and relaxation
   IWAVPR =     10    prediction:  0-non 1-charg 2-wave 3-comb
   ISYM   =      2    0-nonsym 1-usesym 2-fastsym
   LCORR  =      T    Harris-Foulkes like correction to forces

   POTIM  = 0.5000    time-step for ionic-motion
   TEIN   =    0.0    initial temperature
   TEBEG  =    0.0;   TEEND  =   0.0 temperature during run
   SMASS  =  -3.00    Nose mass-parameter (am)
   estimated Nose-frequenzy (Omega)   =  0.10E-29 period in steps = 0.13E+47 mass=  -0.740E-27a.u.
   SCALEE = 1.0000    scale energy and forces
   NPACO  =    256;   APACO  = 16.0  distance and # of slots for P.C.
   PSTRESS=    0.0 pullay stress

  Mass of Ions in am
   POMASS =  22.99 35.45
  Ionic Valenz
   ZVAL   =   7.00  7.00
  Atomic Wigner-Seitz radii
   RWIGS  =  -1.00 -1.00
  virtual crystal weights 
   VCA    =   1.00  1.00
   NELECT =      56.0000    total number of electrons
   NUPDOWN=      -1.0000    fix difference up-down

 DOS related values:
   EMIN   =  10.00;   EMAX   =-10.00  energy-range for DOS
   EFERMI =   0.00
   ISMEAR =     0;   SIGMA  =   0.05  broadening in eV -4-tet -1-fermi 0-gaus

 Electronic relaxation 2 (details)
   IALGO  =     38    algorithm
   LDIAG  =      T    sub-space diagonalisation (order eigenvalues)
   LSUBROT=      F    optimize rotation matrix (better conditioning)
   TURBO    =      0    0=normal 1=particle mesh
   IRESTART =      0    0=no restart 2=restart with 2 vectors
   NREBOOT  =      0    no. of reboots
   NMIN     =      0    reboot dimension
   EREF     =   0.00    reference energy to select bands
   IMIX   =      4    mixing-type and parameters
     AMIX     =   0.40;   BMIX     =  1.00
     AMIX_MAG =   1.60;   BMIX_MAG =  1.00
     AMIN     =   0.10
     WC   =   100.;   INIMIX=   1;  MIXPRE=   1;  MAXMIX= -45

 Intra band minimization:
   WEIMIN = 0.0000     energy-eigenvalue tresh-hold
   EBREAK =  0.69E-09  absolut break condition
   DEPER  =   0.30     relativ break condition  

   TIME   =   0.40     timestep for ELM

  volume/ion in A,a.u.               =      23.05       155.54
  Fermi-wavevector in a.u.,A,eV,Ry     =   1.100431  2.079512 16.475939  1.210947
  Thomas-Fermi vector in A             =   2.236841
 
 Write flags
   LWAVE        =      F    write WAVECAR
   LDOWNSAMPLE  =      F    k-point downsampling of WAVECAR
   LCHARG       =      F    write CHGCAR
   LVTOT        =      T    write LOCPOT, total local potential
   LVHAR        =      F    write LOCPOT, Hartree potential only
   LELF         =      F    write electronic localiz. function (ELF)
   LORBIT       =     11    0 simple, 1 ext, 2 COOP (PROOUT), +10 PAW based schemes


 Dipole corrections
   LMONO  =      F    monopole corrections only (constant potential shift)
   LDIPOL =      F    correct potential (dipole corrections)
   IDIPOL =      0    1-x, 2-y, 3-z, 4-all directions 
   EPSILON=  1.0000000 bulk dielectric constant

 Exchange correlation treatment:
   GGA     =    PS    GGA type
   LEXCH   =    14    internal setting for exchange type
   VOSKOWN=      0    Vosko Wilk Nusair interpolation
   LHFCALC =     F    Hartree Fock is set to
   LHFONE  =     F    Hartree Fock one center treatment
   AEXX    =    0.0000 exact exchange contribution

 Linear response parameters
   LEPSILON=     F    determine dielectric tensor
   LRPA    =     F    only Hartree local field effects (RPA)
   LNABLA  =     F    use nabla operator in PAW spheres
   LVEL    =     F    velocity operator in full k-point grid
   LINTERFAST=   F  fast interpolation
   KINTER  =     0    interpolate to denser k-point grid
   CSHIFT  =0.1000    complex shift for real part using Kramers Kronig
   OMEGAMAX=  -1.0    maximum frequency
   DEG_THRESHOLD= 0.2000000E-02 threshold for treating states as degnerate
   RTIME   =   -0.100 relaxation time in fs
  (WPLASMAI=    0.000 imaginary part of plasma frequency in eV, 0.658/RTIME)
   DFIELD  = 0.0000000 0.0000000 0.0000000 field for delta impulse in time
 
 Orbital magnetization related:
   ORBITALMAG=     F  switch on orbital magnetization
   LCHIMAG   =     F  perturbation theory with respect to B field
   DQ        =  0.001000  dq finite difference perturbation B field
   LLRAUG    =     F  two centre corrections for induced B field



--------------------------------------------------------------------------------------------------------


 Static calculation
 charge density and potential will be updated during run
 spin polarized calculation
 Variant of blocked Davidson
 Davidson routine will perform the subspace rotation
 perform sub-space diagonalisation
    after iterative eigenvector-optimisation
 modified Broyden-mixing scheme, WC =      100.0
 initial mixing is a Kerker type mixing with AMIX =  0.4000 and BMIX =      1.0000
 Hartree-type preconditioning will be used
 using additional bands            8
 reciprocal scheme for non local part
 use partial core corrections
 calculate Harris-corrections to forces 
   (improved forces if not selfconsistent)
 use gradient corrections 
 use of overlap-Matrix (Vanderbilt PP)
 Gauss-broadening in eV      SIGMA  =   0.05


--------------------------------------------------------------------------------------------------------


  energy-cutoff  :      700.00
  volume of cell :      184.38
      direct lattice vectors                 reciprocal lattice vectors
     5.691694000  0.000000000  0.000000000     0.175694617  0.000000000  0.000000000
     0.000000000  5.691694000  0.000000000     0.000000000  0.175694617  0.000000000
     0.000000000  0.000000000  5.691694000     0.000000000  0.000000000  0.175694617

  length of vectors
     5.691694000  5.691694000  5.691694000     0.175694617  0.175694617  0.175694617


 
 k-points in units of 2pi/SCALE and weight: pymatgen with grid density = 7000 / numb
   0.00000000  0.00000000  0.00000000       0.001
   0.01952162  0.00000000  0.00000000       0.003
   0.00000000  0.01952162  0.00000000       0.005
   0.03904325  0.00000000  0.00000000       0.003
   0.00000000  0.03904325  0.00000000       0.005
   0.05856487  0.00000000  0.00000000       0.003
   0.00000000  0.05856487  0.00000000       0.005
   0.07808650  0.00000000  0.00000000       0.003
   0.00000000  0.07808650  0.00000000       0.005
   0.01952162  0.01952162  0.00000000       0.011
   0.00000000  0.01952162  0.01952162       0.005
   0.03904325  0.01952162  0.00000000       0.011
   0.00000000  0.03904325  0.01952162       0.011
   0.01952162  0.00000000  0.03904325       0.011
   0.05856487  0.01952162  0.00000000       0.011
   0.00000000  0.05856487  0.01952162       0.011
   0.01952162  0.00000000  0.05856487       0.011
   0.07808650  0.01952162  0.00000000       0.011
   0.00000000  0.07808650  0.01952162       0.011
   0.01952162  0.00000000  0.07808650       0.011
   0.03904325  0.03904325  0.00000000       0.011
   0.00000000  0.03904325  0.03904325       0.005
   0.05856487  0.03904325  0.00000000       0.011
   0.00000000  0.05856487  0.03904325       0.011
   0.03904325  0.00000000  0.05856487       0.011
   0.07808650  0.03904325  0.00000000       0.011
   0.00000000  0.07808650  0.03904325       0.011
   0.03904325  0.00000000  0.07808650       0.011
   0.05856487  0.05856487  0.00000000       0.011
   0.00000000  0.05856487  0.05856487       0.005
   0.07808650  0.05856487  0.00000000       0.011
   0.00000000  0.07808650  0.05856487       0.011
   0.05856487  0.00000000  0.07808650       0.011
   0.07808650  0.07808650  0.00000000       0.011
   0.00000000  0.07808650  0.07808650       0.005
   0.01952162  0.01952162  0.01952162       0.011
   0.03904325  0.01952162  0.01952162       0.011
   0.01952162  0.03904325  0.01952162       0.022
   0.05856487  0.01952162  0.01952162       0.011
   0.01952162  0.05856487  0.01952162       0.022
   0.07808650  0.01952162  0.01952162       0.011
   0.01952162  0.07808650  0.01952162       0.022
   0.03904325  0.03904325  0.01952162       0.022
   0.01952162  0.03904325  0.03904325       0.011
   0.05856487  0.03904325  0.01952162       0.022
   0.01952162  0.05856487  0.03904325       0.022
   0.03904325  0.01952162  0.05856487       0.022
   0.07808650  0.03904325  0.01952162       0.022
   0.01952162  0.07808650  0.03904325       0.022
   0.03904325  0.01952162  0.07808650       0.022
   0.05856487  0.05856487  0.01952162       0.022
   0.01952162  0.05856487  0.05856487       0.011
   0.07808650  0.05856487  0.01952162       0.022
   0.01952162  0.07808650  0.05856487       0.022
   0.05856487  0.01952162  0.07808650       0.022
   0.07808650  0.07808650  0.01952162       0.022
   0.01952162  0.07808650  0.07808650       0.011
   0.03904325  0.03904325  0.03904325       0.011
   0.05856487  0.03904325  0.03904325       0.011
   0.03904325  0.05856487  0.03904325       0.022
   0.07808650  0.03904325  0.03904325       0.011
   0.03904325  0.07808650  0.03904325       0.022
   0.05856487  0.05856487  0.03904325       0.022
   0.03904325  0.05856487  0.05856487       0.011
   0.07808650  0.05856487  0.03904325       0.022
   0.03904325  0.07808650  0.05856487       0.022
   0.05856487  0.03904325  0.07808650       0.022
   0.07808650  0.07808650  0.03904325       0.022
   0.03904325  0.07808650  0.07808650       0.011
   0.05856487  0.05856487  0.05856487       0.011
   0.07808650  0.05856487  0.05856487       0.011
   0.05856487  0.07808650  0.05856487       0.022
   0.07808650  0.07808650  0.05856487       0.022
   0.05856487  0.07808650  0.07808650       0.011
   0.07808650  0.07808650  0.07808650       0.011
 
 k-points in reciprocal lattice and weights: pymatgen with grid density = 7000 / numb
   0.00000000  0.00000000  0.00000000       0.001
   0.11111111  0.00000000  0.00000000       0.003
   0.00000000  0.11111111  0.00000000       0.005
   0.22222222  0.00000000  0.00000000       0.003
   0.00000000  0.22222222  0.00000000       0.005
   0.33333333  0.00000000  0.00000000       0.003
   0.00000000  0.33333333  0.00000000       0.005
   0.44444444  0.00000000  0.00000000       0.003
   0.00000000  0.44444444  0.00000000       0.005
   0.11111111  0.11111111  0.00000000       0.011
   0.00000000  0.11111111  0.11111111       0.005
   0.22222222  0.11111111  0.00000000       0.011
   0.00000000  0.22222222  0.11111111       0.011
   0.11111111  0.00000000  0.22222222       0.011
   0.33333333  0.11111111  0.00000000       0.011
   0.00000000  0.33333333  0.11111111       0.011
   0.11111111  0.00000000  0.33333333       0.011
   0.44444444  0.11111111  0.00000000       0.011
   0.00000000  0.44444444  0.11111111       0.011
   0.11111111  0.00000000  0.44444444       0.011
   0.22222222  0.22222222  0.00000000       0.011
   0.00000000  0.22222222  0.22222222       0.005
   0.33333333  0.22222222  0.00000000       0.011
   0.00000000  0.33333333  0.22222222       0.011
   0.22222222  0.00000000  0.33333333       0.011
   0.44444444  0.22222222  0.00000000       0.011
   0.00000000  0.44444444  0.22222222       0.011
   0.22222222  0.00000000  0.44444444       0.011
   0.33333333  0.33333333  0.00000000       0.011
   0.00000000  0.33333333  0.33333333       0.005
   0.44444444  0.33333333  0.00000000       0.011
   0.00000000  0.44444444  0.33333333       0.011
   0.33333333  0.00000000  0.44444444       0.011
   0.44444444  0.44444444  0.00000000       0.011
   0.00000000  0.44444444  0.44444444       0.005
   0.11111111  0.11111111  0.11111111       0.011
   0.22222222  0.11111111  0.11111111       0.011
   0.11111111  0.22222222  0.11111111       0.022
   0.33333333  0.11111111  0.11111111       0.011
   0.11111111  0.33333333  0.11111111       0.022
   0.44444444  0.11111111  0.11111111       0.011
   0.11111111  0.44444444  0.11111111       0.022
   0.22222222  0.22222222  0.11111111       0.022
   0.11111111  0.22222222  0.22222222       0.011
   0.33333333  0.22222222  0.11111111       0.022
   0.11111111  0.33333333  0.22222222       0.022
   0.22222222  0.11111111  0.33333333       0.022
   0.44444444  0.22222222  0.11111111       0.022
   0.11111111  0.44444444  0.22222222       0.022
   0.22222222  0.11111111  0.44444444       0.022
   0.33333333  0.33333333  0.11111111       0.022
   0.11111111  0.33333333  0.33333333       0.011
   0.44444444  0.33333333  0.11111111       0.022
   0.11111111  0.44444444  0.33333333       0.022
   0.33333333  0.11111111  0.44444444       0.022
   0.44444444  0.44444444  0.11111111       0.022
   0.11111111  0.44444444  0.44444444       0.011
   0.22222222  0.22222222  0.22222222       0.011
   0.33333333  0.22222222  0.22222222       0.011
   0.22222222  0.33333333  0.22222222       0.022
   0.44444444  0.22222222  0.22222222       0.011
   0.22222222  0.44444444  0.22222222       0.022
   0.33333333  0.33333333  0.22222222       0.022
   0.22222222  0.33333333  0.33333333       0.011
   0.44444444  0.33333333  0.22222222       0.022
   0.22222222  0.44444444  0.33333333       0.022
   0.33333333  0.22222222  0.44444444       0.022
   0.44444444  0.44444444  0.22222222       0.022
   0.22222222  0.44444444  0.44444444       0.011
   0.33333333  0.33333333  0.33333333       0.011
   0.44444444  0.33333333  0.33333333       0.011
   0.33333333  0.44444444  0.33333333       0.022
   0.44444444  0.44444444  0.33333333       0.022
   0.33333333  0.44444444  0.44444444       0.011
   0.44444444  0.44444444  0.44444444       0.011
 
 position of ions in fractional coordinates (direct lattice) 
   0.00000000  0.00000000  0.00000000
   0.00000000  0.50000000  0.50000000
   0.50000000  0.00000000  0.50000000
   0.50000000  0.50000000  0.00000000
   0.50175695  0.00000000  0.00000000
   0.50000000  0.50000000  0.50000000
   0.00000000  0.00000000  0.50000000
   0.00000000  0.50000000  0.00000000
 
 position of ions in cartesian coordinates  (Angst):
   0.00000000  0.00000000  0.00000000
   0.00000000  2.84584700  2.84584700
   2.84584700  0.00000000  2.84584700
   2.84584700  2.84584700  0.00000000
   2.85584700  0.00000000  0.00000000
   2.84584700  2.84584700  2.84584700
   0.00000000  0.00000000  2.84584700
   0.00000000  2.84584700  0.00000000
 


--------------------------------------------------------------------------------------------------------


 k-point   1 :   0.0000 0.0000 0.0000  plane waves:    7809
 k-point   2 :   0.1111 0.0000 0.0000  plane waves:    7757
 k-point   3 :   0.0000 0.1111 0.0000  plane waves:    7757
 k-point   4 :   0.2222 0.0000 0.0000  plane waves:    7777
 k-point   5 :   0.0000 0.2222 0.0000  plane waves:    7777
 k-point   6 :   0.3333 0.0000 0.0000  plane waves:    7756
 k-point   7 :   0.0000 0.3333 0.0000  plane waves:    7756
 k-point   8 :   0.4444 0.0000 0.0000  plane waves:    7768
 k-point   9 :   0.0000 0.4444 0.0000  plane waves:    7768
 k-point  10 :   0.1111 0.1111 0.0000  plane waves:    7773
 k-point  11 :   0.0000 0.1111 0.1111  plane waves:    7773
 k-point  12 :   0.2222 0.1111 0.0000  plane waves:    7764
 k-point  13 :   0.0000 0.2222 0.1111  plane waves:    7764
 k-point  14 :   0.1111 0.0000 0.2222  plane waves:    7764
 k-point  15 :   0.3333 0.1111 0.0000  plane waves:    7759
 k-point  16 :   0.0000 0.3333 0.1111  plane waves:    7759
 k-point  17 :   0.1111 0.0000 0.3333  plane waves:    7759
 k-point  18 :   0.4444 0.1111 0.0000  plane waves:    7753
 k-point  19 :   0.0000 0.4444 0.1111  plane waves:    7753
 k-point  20 :   0.1111 0.0000 0.4444  plane waves:    7753
 k-point  21 :   0.2222 0.2222 0.0000  plane waves:    7757
 k-point  22 :   0.0000 0.2222 0.2222  plane waves:    7757
 k-point  23 :   0.3333 0.2222 0.0000  plane waves:    7746
 k-point  24 :   0.0000 0.3333 0.2222  plane waves:    7746
 k-point  25 :   0.2222 0.0000 0.3333  plane waves:    7746
 k-point  26 :   0.4444 0.2222 0.0000  plane waves:    7753
 k-point  27 :   0.0000 0.4444 0.2222  plane waves:    7753
 k-point  28 :   0.2222 0.0000 0.4444  plane waves:    7753
 k-point  29 :   0.3333 0.3333 0.0000  plane waves:    7730
 k-point  30 :   0.0000 0.3333 0.3333  plane waves:    7730
 k-point  31 :   0.4444 0.3333 0.0000  plane waves:    7750
 k-point  32 :   0.0000 0.4444 0.3333  plane waves:    7750
 k-point  33 :   0.3333 0.0000 0.4444  plane waves:    7750
 k-point  34 :   0.4444 0.4444 0.0000  plane waves:    7768
 k-point  35 :   0.0000 0.4444 0.4444  plane waves:    7768
 k-point  36 :   0.1111 0.1111 0.1111  plane waves:    7775
 k-point  37 :   0.2222 0.1111 0.1111  plane waves:    7764
 k-point  38 :   0.1111 0.2222 0.1111  plane waves:    7764
 k-point  39 :   0.3333 0.1111 0.1111  plane waves:    7766
 k-point  40 :   0.1111 0.3333 0.1111  plane waves:    7766
 k-point  41 :   0.4444 0.1111 0.1111  plane waves:    7758
 k-point  42 :   0.1111 0.4444 0.1111  plane waves:    7758
 k-point  43 :   0.2222 0.2222 0.1111  plane waves:    7744
 k-point  44 :   0.1111 0.2222 0.2222  plane waves:    7744
 k-point  45 :   0.3333 0.2222 0.1111  plane waves:    7748
 k-point  46 :   0.1111 0.3333 0.2222  plane waves:    7748
 k-point  47 :   0.2222 0.1111 0.3333  plane waves:    7748
 k-point  48 :   0.4444 0.2222 0.1111  plane waves:    7742
 k-point  49 :   0.1111 0.4444 0.2222  plane waves:    7742
 k-point  50 :   0.2222 0.1111 0.4444  plane waves:    7742
 k-point  51 :   0.3333 0.3333 0.1111  plane waves:    7735
 k-point  52 :   0.1111 0.3333 0.3333  plane waves:    7735
 k-point  53 :   0.4444 0.3333 0.1111  plane waves:    7756
 k-point  54 :   0.1111 0.4444 0.3333  plane waves:    7756
 k-point  55 :   0.3333 0.1111 0.4444  plane waves:    7756
 k-point  56 :   0.4444 0.4444 0.1111  plane waves:    7765
 k-point  57 :   0.1111 0.4444 0.4444  plane waves:    7765
 k-point  58 :   0.2222 0.2222 0.2222  plane waves:    7739
 k-point  59 :   0.3333 0.2222 0.2222  plane waves:    7750
 k-point  60 :   0.2222 0.3333 0.2222  plane waves:    7750
 k-point  61 :   0.4444 0.2222 0.2222  plane waves:    7763
 k-point  62 :   0.2222 0.4444 0.2222  plane waves:    7763
 k-point  63 :   0.3333 0.3333 0.2222  plane waves:    7751
 k-point  64 :   0.2222 0.3333 0.3333  plane waves:    7751
 k-point  65 :   0.4444 0.3333 0.2222  plane waves:    7766
 k-point  66 :   0.2222 0.4444 0.3333  plane waves:    7766
 k-point  67 :   0.3333 0.2222 0.4444  plane waves:    7766
 k-point  68 :   0.4444 0.4444 0.2222  plane waves:    7750
 k-point  69 :   0.2222 0.4444 0.4444  plane waves:    7750
 k-point  70 :   0.3333 0.3333 0.3333  plane waves:    7766
 k-point  71 :   0.4444 0.3333 0.3333  plane waves:    7771
 k-point  72 :   0.3333 0.4444 0.3333  plane waves:    7771
 k-point  73 :   0.4444 0.4444 0.3333  plane waves:    7764
 k-point  74 :   0.3333 0.4444 0.4444  plane waves:    7764
 k-point  75 :   0.4444 0.4444 0.4444  plane waves:    7730

 maximum and minimum number of plane-waves per node :       343      307

 maximum number of plane-waves:      7809
 maximum index in each direction: 
   IXMAX=   12   IYMAX=   12   IZMAX=   12
   IXMIN=  -12   IYMIN=  -12   IZMIN=  -12


 parallel 3D FFT for wavefunctions:
    minimum data exchange during FFTs selected (reduces bandwidth)
 parallel 3D FFT for charge:
    minimum data exchange during FFTs selected (reduces bandwidth)


 total amount of memory used by VASP MPI-rank0    43776. kBytes
=======================================================================

   base      :      30000. kBytes
   nonl-proj :       3268. kBytes
   fftplans  :        842. kBytes
   grid      :       2230. kBytes
   one-center:          6. kBytes
   wavefun   :       7430. kBytes
 
     INWAV:  cpu time    0.0000: real time    0.0000
 Broyden mixing: mesh for mixing (old mesh)
   NGX = 25   NGY = 25   NGZ = 25
  (NGX  =100   NGY  =100   NGZ  =100)
  gives a total of  15625 points

 initial charge density was supplied:
 charge density of overlapping atoms calculated
 number of electron      56.0000000 magnetization       4.8000000
 keeping initial charge density in first step


--------------------------------------------------------------------------------------------------------


 Maximum index for augmentation-charges         1666 (set IRDMAX)


--------------------------------------------------------------------------------------------------------


 First call to EWALD:  gamma=   0.311
 Maximum number of real-space cells 3x 3x 3
 Maximum number of reciprocal cells 3x 3x 3

    FEWALD:  cpu time    0.0021: real time    0.0021


--------------------------------------- Iteration      1(   1)  ---------------------------------------


    POTLOK:  cpu time    0.0318: real time    0.0362
    SETDIJ:  cpu time    0.2014: real time    0.2018
     EDDAV:  cpu time    2.4640: real time    2.4681
       DOS:  cpu time    0.0036: real time    0.0037
    --------------------------------------------
      LOOP:  cpu time    2.7009: real time    2.7098

 eigenvalue-minimisations  : 10816
 total energy-change (2. order) : 0.6712949E+03  (-0.3084236E+04)
 number of electron      56.0000000 magnetization       4.8000000
 augmentation part       56.0000000 magnetization       4.8000000

 Free energy of the ion-electron system (eV)
  ---------------------------------------------------
  alpha Z        PSCENC =        89.56934524
  Ewald energy   TEWEN  =     -2813.87384142
  -Hartree energ DENC   =     -1148.58827661
  -exchange      EXHF   =         0.00000000
  -V(xc)+E(xc)   XCENC  =       182.03415819
  PAW double counting   =      3307.95688671    -3660.34697251
  entropy T*S    EENTRO =        -0.00141900
  eigenvalues    EBANDS =        22.91246019
  atomic energy  EATOM  =      4691.63253718
  Solvation  Ediel_sol  =         0.00000000
  ---------------------------------------------------
  free energy    TOTEN  =       671.29487797 eV

  energy without entropy =      671.29629697  energy(sigma->0) =      671.29558747


--------------------------------------------------------------------------------------------------------




--------------------------------------- Iteration      1(   2)  ---------------------------------------


     EDDAV:  cpu time    2.5279: real time    2.5290
       DOS:  cpu time    0.0036: real time    0.0036
    --------------------------------------------
      LOOP:  cpu time    2.5315: real time    2.5326

 eigenvalue-minimisations  : 11580
 total energy-change (2. order) :-0.5981913E+03  (-0.5784780E+03)
 number of electron      56.0000000 magnetization       4.8000000
 augmentation part       56.0000000 magnetization       4.8000000

 Free energy of the ion-electron system (eV)
  ---------------------------------------------------
  alpha Z        PSCENC =        89.56934524
  Ewald energy   TEWEN  =     -2813.87384142
  -Hartree energ DENC   =     -1148.58827661
  -exchange      EXHF   =         0.00000000
  -V(xc)+E(xc)   XCENC  =       182.03415819
  PAW double counting   =      3307.95688671    -3660.34697251
  entropy T*S    EENTRO =        -0.00099972
  eigenvalues    EBANDS =      -575.27929909
  atomic energy  EATOM  =      4691.63253718
  Solvation  Ediel_sol  =         0.00000000
  ---------------------------------------------------
  free energy    TOTEN  =        73.10353797 eV

  energy without entropy =       73.10453769  energy(sigma->0) =       73.10403783


--------------------------------------------------------------------------------------------------------




--------------------------------------- Iteration      1(   3)  ---------------------------------------


     EDDAV:  cpu time    2.6512: real time    2.6519
       DOS:  cpu time    0.0020: real time    0.0020
    --------------------------------------------
      LOOP:  cpu time    2.6532: real time    2.6538

 eigenvalue-minimisations  : 12432
 total energy-change (2. order) :-0.9551267E+02  (-0.9356280E+02)
 number of electron      56.0000000 magnetization       4.8000000
 augmentation part       56.0000000 magnetization       4.8000000

 Free energy of the ion-electron system (eV)
  ---------------------------------------------------
  alpha Z        PSCENC =        89.56934524
  Ewald energy   TEWEN  =     -2813.87384142
  -Hartree energ DENC   =     -1148.58827661
  -exchange      EXHF   =         0.00000000
  -V(xc)+E(xc)   XCENC  =       182.03415819
  PAW double counting   =      3307.95688671    -3660.34697251
  entropy T*S    EENTRO =        -0.00000000
  eigenvalues    EBANDS =      -670.79296498
  atomic energy  EATOM  =      4691.63253718
  Solvation  Ediel_sol  =         0.00000000
  ---------------------------------------------------
  free energy    TOTEN  =       -22.40912821 eV

  energy without entropy =      -22.40912821  energy(sigma->0) =      -22.40912821


--------------------------------------------------------------------------------------------------------




--------------------------------------- Iteration      1(   4)  ---------------------------------------


     EDDAV:  cpu time    2.7079: real time    2.7097
       DOS:  cpu time    0.0018: real time    0.0018
    --------------------------------------------
      LOOP:  cpu time    2.7098: real time    2.7115

 eigenvalue-minimisations  : 12912
 total energy-change (2. order) :-0.5219476E+01  (-0.5198507E+01)
 number of electron      56.0000000 magnetization       4.8000000
 augmentation part       56.0000000 magnetization       4.8000000

 Free energy of the ion-electron system (eV)
  ---------------------------------------------------
  alpha Z        PSCENC =        89.56934524
  Ewald energy   TEWEN  =     -2813.87384142
  -Hartree energ DENC   =     -1148.58827661
  -exchange      EXHF   =         0.00000000
  -V(xc)+E(xc)   XCENC  =       182.03415819
  PAW double counting   =      3307.95688671    -3660.34697251
  entropy T*S    EENTRO =        -0.00000000
  eigenvalues    EBANDS =      -676.01244126
  atomic energy  EATOM  =      4691.63253718
  Solvation  Ediel_sol  =         0.00000000
  ---------------------------------------------------
  free energy    TOTEN  =       -27.62860448 eV

  energy without entropy =      -27.62860448  energy(sigma->0) =      -27.62860448


--------------------------------------------------------------------------------------------------------




--------------------------------------- Iteration      1(   5)  ---------------------------------------


     EDDAV:  cpu time    2.8779: real time    2.8798
       DOS:  cpu time    0.0019: real time    0.0019
    CHARGE:  cpu time    0.1314: real time    0.1323
    MIXING:  cpu time    0.0013: real time    0.0019
    --------------------------------------------
      LOOP:  cpu time    3.0125: real time    3.0159

 eigenvalue-minimisations  : 14388
 total energy-change (2. order) :-0.1498672E+00  (-0.1496421E+00)
 number of electron      56.0000040 magnetization       0.5815747
 augmentation part       13.9499299 magnetization       0.6324780

 Broyden mixing:
  rms(total) = 0.10441E+01    rms(broyden)= 0.10440E+01
  rms(prec ) = 0.12870E+01
  weight for this iteration     100.00

 Free energy of the ion-electron system (eV)
  ---------------------------------------------------
  alpha Z        PSCENC =        89.56934524
  Ewald energy   TEWEN  =     -2813.87384142
  -Hartree energ DENC   =     -1148.58827661
  -exchange      EXHF   =         0.00000000
  -V(xc)+E(xc)   XCENC  =       182.03415819
  PAW double counting   =      3307.95688671    -3660.34697251
  entropy T*S    EENTRO =        -0.00000000
  eigenvalues    EBANDS =      -676.16230843
  atomic energy  EATOM  =      4691.63253718
  Solvation  Ediel_sol  =         0.00000000
  ---------------------------------------------------
  free energy    TOTEN  =       -27.77847165 eV

  energy without entropy =      -27.77847165  energy(sigma->0) =      -27.77847165


--------------------------------------------------------------------------------------------------------




--------------------------------------- Iteration      1(   6)  ---------------------------------------


    POTLOK:  cpu time    0.0245: real time    0.0245
    SETDIJ:  cpu time    0.2020: real time    0.2020
     EDDAV:  cpu time    2.6938: real time    2.6934
       DOS:  cpu time    0.0019: real time    0.0019
    CHARGE:  cpu time    0.1303: real time    0.1303
    MIXING:  cpu time    0.0008: real time    0.0010
    --------------------------------------------
      LOOP:  cpu time    3.0532: real time    3.0530

 eigenvalue-minimisations  : 13320
 total energy-change (2. order) :-0.6518762E-02  (-0.1999065E+00)
 number of electron      56.0000040 magnetization       0.1464382
 augmentation part       14.0558589 magnetization       0.1153757

 Broyden mixing:
  rms(total) = 0.44735E+00    rms(broyden)= 0.44735E+00
  rms(prec ) = 0.54795E+00
  weight for this iteration     100.00

 eigenvalues of (default mixing * dielectric matrix)
  average eigenvalue GAMMA=   0.7394
  0.7394

 Free energy of the ion-electron system (eV)
  ---------------------------------------------------
  alpha Z        PSCENC =        89.56934524
  Ewald energy   TEWEN  =     -2813.87384142
  -Hartree energ DENC   =     -1157.70016502
  -exchange      EXHF   =         0.00000000
  -V(xc)+E(xc)   XCENC  =       182.96836834
  PAW double counting   =      3407.49174841    -3758.78907867
  entropy T*S    EENTRO =        -0.00000000
  eigenvalues    EBANDS =      -669.08390448
  atomic energy  EATOM  =      4691.63253718
  Solvation  Ediel_sol  =         0.00000000
  ---------------------------------------------------
  free energy    TOTEN  =       -27.78499041 eV

  energy without entropy =      -27.78499041  energy(sigma->0) =      -27.78499041


--------------------------------------------------------------------------------------------------------




--------------------------------------- Iteration      1(   7)  ---------------------------------------


    POTLOK:  cpu time    0.0246: real time    0.0246
    SETDIJ:  cpu time    0.2023: real time    0.2023
     EDDAV:  cpu time    2.6940: real time    2.6936
       DOS:  cpu time    0.0019: real time    0.0019
    CHARGE:  cpu time    0.1313: real time    0.1313
    MIXING:  cpu time    0.0005: real time    0.0005
    --------------------------------------------
      LOOP:  cpu time    3.0545: real time    3.0542

 eigenvalue-minimisations  : 13328
 total energy-change (2. order) :-0.1594098E+00  (-0.3348671E-01)
 number of electron      56.0000040 magnetization      -0.0660910
 augmentation part       14.0874564 magnetization      -0.0522483

 Broyden mixing:
  rms(total) = 0.23076E+00    rms(broyden)= 0.23076E+00
  rms(prec ) = 0.29901E+00
  weight for this iteration     100.00

 eigenvalues of (default mixing * dielectric matrix)
  average eigenvalue GAMMA=   0.8942
  1.0568  0.7317

 Free energy of the ion-electron system (eV)
  ---------------------------------------------------
  alpha Z        PSCENC =        89.56934524
  Ewald energy   TEWEN  =     -2813.87384142
  -Hartree energ DENC   =     -1159.69773988
  -exchange      EXHF   =         0.00000000
  -V(xc)+E(xc)   XCENC  =       183.22705838
  PAW double counting   =      3485.58560666    -3836.90230795
  entropy T*S    EENTRO =        -0.00000000
  eigenvalues    EBANDS =      -667.48505838
  atomic energy  EATOM  =      4691.63253718
  Solvation  Ediel_sol  =         0.00000000
  ---------------------------------------------------
  free energy    TOTEN  =       -27.94440017 eV

  energy without entropy =      -27.94440017  energy(sigma->0) =      -27.94440017


--------------------------------------------------------------------------------------------------------




--------------------------------------- Iteration      1(   8)  ---------------------------------------


    POTLOK:  cpu time    0.0236: real time    0.0250
    SETDIJ:  cpu time    0.2022: real time    0.2022
     EDDAV:  cpu time    2.7066: real time    2.7062
       DOS:  cpu time    0.0019: real time    0.0019
    CHARGE:  cpu time    0.1303: real time    0.1303
    MIXING:  cpu time    0.0004: real time    0.0004
    --------------------------------------------
      LOOP:  cpu time    3.0650: real time    3.0659

 eigenvalue-minimisations  : 13440
 total energy-change (2. order) :-0.1059610E-01  (-0.9670809E-02)
 number of electron      56.0000040 magnetization       0.0054060
 augmentation part       14.1071858 magnetization       0.0026939

 Broyden mixing:
  rms(total) = 0.12000E+00    rms(broyden)= 0.12000E+00
  rms(prec ) = 0.14768E+00
  weight for this iteration     100.00

 eigenvalues of (default mixing * dielectric matrix)
  average eigenvalue GAMMA=   1.3038
  2.2281  0.9660  0.7172

 Free energy of the ion-electron system (eV)
  ---------------------------------------------------
  alpha Z        PSCENC =        89.56934524
  Ewald energy   TEWEN  =     -2813.87384142
  -Hartree energ DENC   =     -1160.72921053
  -exchange      EXHF   =         0.00000000
  -V(xc)+E(xc)   XCENC  =       183.58066106
  PAW double counting   =      3591.08804340    -3942.65153820
  entropy T*S    EENTRO =        -0.00000000
  eigenvalues    EBANDS =      -666.57099299
  atomic energy  EATOM  =      4691.63253718
  Solvation  Ediel_sol  =         0.00000000
  ---------------------------------------------------
  free energy    TOTEN  =       -27.95499627 eV

  energy without entropy =      -27.95499627  energy(sigma->0) =      -27.95499627


--------------------------------------------------------------------------------------------------------




--------------------------------------- Iteration      1(   9)  ---------------------------------------


    POTLOK:  cpu time    0.0236: real time    0.0255
    SETDIJ:  cpu time    0.2022: real time    0.2022
     EDDAV:  cpu time    2.7241: real time    2.7237
       DOS:  cpu time    0.0026: real time    0.0026
    CHARGE:  cpu time    0.1976: real time    0.1973
    MIXING:  cpu time    0.0008: real time    0.0008
    --------------------------------------------
      LOOP:  cpu time    3.1510: real time    3.1520

 eigenvalue-minimisations  : 12876
 total energy-change (2. order) :-0.9502886E-02  (-0.1777247E-02)
 number of electron      56.0000040 magnetization       0.0063813
 augmentation part       14.1080621 magnetization       0.0059147

 Broyden mixing:
  rms(total) = 0.37081E-01    rms(broyden)= 0.37081E-01
  rms(prec ) = 0.42458E-01
  weight for this iteration     100.00

 eigenvalues of (default mixing * dielectric matrix)
  average eigenvalue GAMMA=   1.2593
  2.5839  0.9943  0.7768  0.6821

 Free energy of the ion-electron system (eV)
  ---------------------------------------------------
  alpha Z        PSCENC =        89.56934524
  Ewald energy   TEWEN  =     -2813.87384142
  -Hartree energ DENC   =     -1160.24631899
  -exchange      EXHF   =         0.00000000
  -V(xc)+E(xc)   XCENC  =       183.74954891
  PAW double counting   =      3673.27252366    -4025.26327165
  entropy T*S    EENTRO =        -0.00000000
  eigenvalues    EBANDS =      -666.80502208
  atomic energy  EATOM  =      4691.63253718
  Solvation  Ediel_sol  =         0.00000000
  ---------------------------------------------------
  free energy    TOTEN  =       -27.96449915 eV

  energy without entropy =      -27.96449915  energy(sigma->0) =      -27.96449915


--------------------------------------------------------------------------------------------------------




--------------------------------------- Iteration      1(  10)  ---------------------------------------


    POTLOK:  cpu time    0.0266: real time    0.0282
    SETDIJ:  cpu time    0.2023: real time    0.2023
     EDDAV:  cpu time    3.5564: real time    3.5558
       DOS:  cpu time    0.0026: real time    0.0026
    CHARGE:  cpu time    0.1967: real time    0.1962
    MIXING:  cpu time    0.0006: real time    0.0006
    --------------------------------------------
      LOOP:  cpu time    3.9852: real time    3.9857

 eigenvalue-minimisations  : 13840
 total energy-change (2. order) :-0.3870577E-02  (-0.1722863E-03)
 number of electron      56.0000040 magnetization      -0.0000510
 augmentation part       14.1071261 magnetization       0.0009665

 Broyden mixing:
  rms(total) = 0.11592E-01    rms(broyden)= 0.11592E-01
  rms(prec ) = 0.14866E-01
  weight for this iteration     100.00

 eigenvalues of (default mixing * dielectric matrix)
  average eigenvalue GAMMA=   1.2100
  2.4001  1.2578  0.9824  0.7483  0.6613

 Free energy of the ion-electron system (eV)
  ---------------------------------------------------
  alpha Z        PSCENC =        89.56934524
  Ewald energy   TEWEN  =     -2813.87384142
  -Hartree energ DENC   =     -1160.03672386
  -exchange      EXHF   =         0.00000000
  -V(xc)+E(xc)   XCENC  =       183.76428271
  PAW double counting   =      3680.40369475    -4032.47701353
  entropy T*S    EENTRO =        -0.00000000
  eigenvalues    EBANDS =      -666.95065080
  atomic energy  EATOM  =      4691.63253718
  Solvation  Ediel_sol  =         0.00000000
  ---------------------------------------------------
  free energy    TOTEN  =       -27.96836973 eV

  energy without entropy =      -27.96836973  energy(sigma->0) =      -27.96836973


--------------------------------------------------------------------------------------------------------




--------------------------------------- Iteration      1(  11)  ---------------------------------------


    POTLOK:  cpu time    0.0262: real time    0.0270
    SETDIJ:  cpu time    0.2029: real time    0.2029
     EDDAV:  cpu time    3.3003: real time    3.2998
       DOS:  cpu time    0.0026: real time    0.0026
    CHARGE:  cpu time    0.1979: real time    0.1975
    MIXING:  cpu time    0.0008: real time    0.0008
    --------------------------------------------
      LOOP:  cpu time    3.7307: real time    3.7305

 eigenvalue-minimisations  : 12624
 total energy-change (2. order) :-0.4087253E-03  (-0.3058548E-04)
 number of electron      56.0000040 magnetization      -0.0028373
 augmentation part       14.1067642 magnetization      -0.0031974

 Broyden mixing:
  rms(total) = 0.76973E-02    rms(broyden)= 0.76973E-02
  rms(prec ) = 0.96689E-02
  weight for this iteration     100.00

 eigenvalues of (default mixing * dielectric matrix)
  average eigenvalue GAMMA=   1.2211
  2.2870  1.5604  1.0393  1.0393  0.7490  0.6515

 Free energy of the ion-electron system (eV)
  ---------------------------------------------------
  alpha Z        PSCENC =        89.56934524
  Ewald energy   TEWEN  =     -2813.87384142
  -Hartree energ DENC   =     -1159.96311254
  -exchange      EXHF   =         0.00000000
  -V(xc)+E(xc)   XCENC  =       183.76670899
  PAW double counting   =      3677.68322595    -4029.78493003
  entropy T*S    EENTRO =        -0.00000000
  eigenvalues    EBANDS =      -666.99871182
  atomic energy  EATOM  =      4691.63253718
  Solvation  Ediel_sol  =         0.00000000
  ---------------------------------------------------
  free energy    TOTEN  =       -27.96877846 eV

  energy without entropy =      -27.96877846  energy(sigma->0) =      -27.96877846


--------------------------------------------------------------------------------------------------------




--------------------------------------- Iteration      1(  12)  ---------------------------------------


    POTLOK:  cpu time    0.0279: real time    0.0289
    SETDIJ:  cpu time    0.2025: real time    0.2024
     EDDAV:  cpu time    3.2315: real time    3.2311
       DOS:  cpu time    0.0031: real time    0.0031
    CHARGE:  cpu time    0.2272: real time    0.2267
    MIXING:  cpu time    0.0009: real time    0.0009
    --------------------------------------------
      LOOP:  cpu time    3.6931: real time    3.6931

 eigenvalue-minimisations  : 12072
 total energy-change (2. order) :-0.1870830E-03  (-0.2362792E-04)
 number of electron      56.0000040 magnetization      -0.0014526
 augmentation part       14.1069241 magnetization      -0.0009572

 Broyden mixing:
  rms(total) = 0.30538E-02    rms(broyden)= 0.30538E-02
  rms(prec ) = 0.34071E-02
  weight for this iteration     100.00

 eigenvalues of (default mixing * dielectric matrix)
  average eigenvalue GAMMA=   1.3805
  2.6764  2.6764  1.2217  0.9641  0.7509  0.7509  0.6231

 Free energy of the ion-electron system (eV)
  ---------------------------------------------------
  alpha Z        PSCENC =        89.56934524
  Ewald energy   TEWEN  =     -2813.87384142
  -Hartree energ DENC   =     -1159.91176528
  -exchange      EXHF   =         0.00000000
  -V(xc)+E(xc)   XCENC  =       183.77222988
  PAW double counting   =      3672.52914509    -4024.66030002
  entropy T*S    EENTRO =        -0.00000000
  eigenvalues    EBANDS =      -667.02631622
  atomic energy  EATOM  =      4691.63253718
  Solvation  Ediel_sol  =         0.00000000
  ---------------------------------------------------
  free energy    TOTEN  =       -27.96896554 eV

  energy without entropy =      -27.96896554  energy(sigma->0) =      -27.96896554


--------------------------------------------------------------------------------------------------------




--------------------------------------- Iteration      1(  13)  ---------------------------------------


    POTLOK:  cpu time    0.0286: real time    0.0306
    SETDIJ:  cpu time    0.2034: real time    0.2034
     EDDAV:  cpu time    3.3273: real time    3.3268
       DOS:  cpu time    0.0026: real time    0.0026
    CHARGE:  cpu time    0.1974: real time    0.1970
    MIXING:  cpu time    0.0007: real time    0.0007
    --------------------------------------------
      LOOP:  cpu time    3.7601: real time    3.7612

 eigenvalue-minimisations  : 12736
 total energy-change (2. order) :-0.5720660E-04  (-0.4953390E-05)
 number of electron      56.0000040 magnetization      -0.0001988
 augmentation part       14.1069336 magnetization      -0.0002058

 Broyden mixing:
  rms(total) = 0.41840E-03    rms(broyden)= 0.41840E-03
  rms(prec ) = 0.46204E-03
  weight for this iteration     100.00

 eigenvalues of (default mixing * dielectric matrix)
  average eigenvalue GAMMA=   1.3199
  2.8173  2.5953  1.2282  0.9781  0.8689  0.6218  0.7415  0.7080

 Free energy of the ion-electron system (eV)
  ---------------------------------------------------
  alpha Z        PSCENC =        89.56934524
  Ewald energy   TEWEN  =     -2813.87384142
  -Hartree energ DENC   =     -1159.89522418
  -exchange      EXHF   =         0.00000000
  -V(xc)+E(xc)   XCENC  =       183.77397370
  PAW double counting   =      3671.21559092    -4023.35694183
  entropy T*S    EENTRO =        -0.00000000
  eigenvalues    EBANDS =      -667.03446235
  atomic energy  EATOM  =      4691.63253718
  Solvation  Ediel_sol  =         0.00000000
  ---------------------------------------------------
  free energy    TOTEN  =       -27.96902275 eV

  energy without entropy =      -27.96902275  energy(sigma->0) =      -27.96902275


--------------------------------------------------------------------------------------------------------




--------------------------------------- Iteration      1(  14)  ---------------------------------------


    POTLOK:  cpu time    0.0250: real time    0.0270
    SETDIJ:  cpu time    0.2029: real time    0.2029
     EDDAV:  cpu time    3.7338: real time    3.7331
       DOS:  cpu time    0.0025: real time    0.0025
    CHARGE:  cpu time    0.1979: real time    0.1975
    MIXING:  cpu time    0.0008: real time    0.0008
    --------------------------------------------
      LOOP:  cpu time    4.1629: real time    4.1638

 eigenvalue-minimisations  : 14852
 total energy-change (2. order) :-0.1633580E-05  (-0.2521605E-06)
 number of electron      56.0000040 magnetization       0.0000615
 augmentation part       14.1069048 magnetization       0.0000319

 Broyden mixing:
  rms(total) = 0.17015E-03    rms(broyden)= 0.17015E-03
  rms(prec ) = 0.21918E-03
  weight for this iteration     100.00

 eigenvalues of (default mixing * dielectric matrix)
  average eigenvalue GAMMA=   1.2947
  2.9372  2.4606  1.2867  1.1598  0.9791  0.7668  0.7668  0.6741  0.6214

 Free energy of the ion-electron system (eV)
  ---------------------------------------------------
  alpha Z        PSCENC =        89.56934524
  Ewald energy   TEWEN  =     -2813.87384142
  -Hartree energ DENC   =     -1159.89619305
  -exchange      EXHF   =         0.00000000
  -V(xc)+E(xc)   XCENC  =       183.77413514
  PAW double counting   =      3671.32790203    -4023.47013903
  entropy T*S    EENTRO =        -0.00000000
  eigenvalues    EBANDS =      -667.03277047
  atomic energy  EATOM  =      4691.63253718
  Solvation  Ediel_sol  =         0.00000000
  ---------------------------------------------------
  free energy    TOTEN  =       -27.96902438 eV

  energy without entropy =      -27.96902438  energy(sigma->0) =      -27.96902438


--------------------------------------------------------------------------------------------------------




--------------------------------------- Iteration      1(  15)  ---------------------------------------


    POTLOK:  cpu time    0.0245: real time    0.0264
    SETDIJ:  cpu time    0.2027: real time    0.2027
     EDDAV:  cpu time    2.9973: real time    2.9968
       DOS:  cpu time    0.0026: real time    0.0026
    CHARGE:  cpu time    0.1974: real time    0.1969
    MIXING:  cpu time    0.0008: real time    0.0008
    --------------------------------------------
      LOOP:  cpu time    3.4253: real time    3.4263

 eigenvalue-minimisations  : 10596
 total energy-change (2. order) :-0.2892839E-06  (-0.2530174E-07)
 number of electron      56.0000040 magnetization       0.0000284
 augmentation part       14.1069076 magnetization       0.0000383

 Broyden mixing:
  rms(total) = 0.96469E-04    rms(broyden)= 0.96469E-04
  rms(prec ) = 0.12774E-03
  weight for this iteration     100.00

 eigenvalues of (default mixing * dielectric matrix)
  average eigenvalue GAMMA=   1.2719
  2.9566  2.4392  1.4617  1.1979  1.0266  0.8767  0.7339  0.7339  0.6183  0.6742

 Free energy of the ion-electron system (eV)
  ---------------------------------------------------
  alpha Z        PSCENC =        89.56934524
  Ewald energy   TEWEN  =     -2813.87384142
  -Hartree energ DENC   =     -1159.89886870
  -exchange      EXHF   =         0.00000000
  -V(xc)+E(xc)   XCENC  =       183.77424294
  PAW double counting   =      3671.34868965    -4023.49095835
  entropy T*S    EENTRO =        -0.00000000
  eigenvalues    EBANDS =      -667.03017121
  atomic energy  EATOM  =      4691.63253718
  Solvation  Ediel_sol  =         0.00000000
  ---------------------------------------------------
  free energy    TOTEN  =       -27.96902467 eV

  energy without entropy =      -27.96902467  energy(sigma->0) =      -27.96902467


--------------------------------------------------------------------------------------------------------




--------------------------------------- Iteration      1(  16)  ---------------------------------------


    POTLOK:  cpu time    0.0268: real time    0.0277
    SETDIJ:  cpu time    0.2037: real time    0.2037
     EDDAV:  cpu time    2.7249: real time    2.7245
       DOS:  cpu time    0.0026: real time    0.0025
    CHARGE:  cpu time    0.1971: real time    0.1967
    MIXING:  cpu time    0.0009: real time    0.0009
    --------------------------------------------
      LOOP:  cpu time    3.1559: real time    3.1560

 eigenvalue-minimisations  :  8948
 total energy-change (2. order) :-0.1163489E-06  (-0.8641127E-08)
 number of electron      56.0000040 magnetization       0.0000054
 augmentation part       14.1069122 magnetization      -0.0000004

 Broyden mixing:
  rms(total) = 0.50968E-04    rms(broyden)= 0.50968E-04
  rms(prec ) = 0.60091E-04
  weight for this iteration     100.00

 eigenvalues of (default mixing * dielectric matrix)
  average eigenvalue GAMMA=   1.3553
  3.0387  2.5053  2.5053  1.2824  1.0934  1.0109  0.7899  0.7339  0.6967  0.6169
  0.6343

 Free energy of the ion-electron system (eV)
  ---------------------------------------------------
  alpha Z        PSCENC =        89.56934524
  Ewald energy   TEWEN  =     -2813.87384142
  -Hartree energ DENC   =     -1159.90138663
  -exchange      EXHF   =         0.00000000
  -V(xc)+E(xc)   XCENC  =       183.77430370
  PAW double counting   =      3671.34662945    -4023.48875645
  entropy T*S    EENTRO =        -0.00000000
  eigenvalues    EBANDS =      -667.02785586
  atomic energy  EATOM  =      4691.63253718
  Solvation  Ediel_sol  =         0.00000000
  ---------------------------------------------------
  free energy    TOTEN  =       -27.96902479 eV

  energy without entropy =      -27.96902479  energy(sigma->0) =      -27.96902479


--------------------------------------------------------------------------------------------------------




--------------------------------------- Iteration      1(  17)  ---------------------------------------


    POTLOK:  cpu time    0.0245: real time    0.0260
    SETDIJ:  cpu time    0.2033: real time    0.2033
     EDDAV:  cpu time    2.5362: real time    2.5358
       DOS:  cpu time    0.0026: real time    0.0026
    --------------------------------------------
      LOOP:  cpu time    2.7665: real time    2.7677

 eigenvalue-minimisations  :  7812
 total energy-change (2. order) :-0.1127410E-07  (-0.2002192E-08)
 number of electron      56.0000040 magnetization       0.0000054
 augmentation part       14.1069122 magnetization      -0.0000004

 Free energy of the ion-electron system (eV)
  ---------------------------------------------------
  alpha Z        PSCENC =        89.56934524
  Ewald energy   TEWEN  =     -2813.87384142
  -Hartree energ DENC   =     -1159.90233905
  -exchange      EXHF   =         0.00000000
  -V(xc)+E(xc)   XCENC  =       183.77430848
  PAW double counting   =      3671.35313236    -4023.49514544
  entropy T*S    EENTRO =        -0.00000000
  eigenvalues    EBANDS =      -667.02702215
  atomic energy  EATOM  =      4691.63253718
  Solvation  Ediel_sol  =         0.00000000
  ---------------------------------------------------
  free energy    TOTEN  =       -27.96902480 eV

  energy without entropy =      -27.96902480  energy(sigma->0) =      -27.96902480


--------------------------------------------------------------------------------------------------------




 average (electrostatic) potential at core
  the test charge radii are     0.9254  0.9406
  (the norm of the test charge is              1.0000)
       1 -47.3276       2 -47.3276       3 -47.3276       4 -47.3276       5 -93.8267
       6 -93.8268       7 -93.8268       8 -93.8268
 
 
 
 E-fermi :  -0.7062     XC(G=0):  -8.2130     alpha+bet : -7.8680


 spin component 1

 k-point     1 :       0.0000    0.0000    0.0000
  band No.  band energies     occupation 
      1     -21.6630      1.00000
      2     -21.6630      1.00000
      3     -21.6630      1.00000
      4     -21.6520      1.00000
      5     -21.6520      1.00000
      6     -21.6520      1.00000
      7     -21.6520      1.00000
      8     -21.6520      1.00000
      9     -21.6519      1.00000
     10     -21.6444      1.00000
     11     -21.6444      1.00000
     12     -21.6444      1.00000
     13     -13.5222      1.00000
     14     -13.1572      1.00000
     15     -13.1572      1.00000
     16     -13.1572      1.00000
     17      -2.5701      1.00000
     18      -2.5701      1.00000
     19      -2.5701      1.00000
     20      -1.5223      1.00000
     21      -1.5223      1.00000
     22      -1.5223      1.00000
     23      -1.5223      1.00000
     24      -1.5222      1.00000
     25      -1.5222      1.00000
     26      -0.9394      1.00000
     27      -0.9393      1.00000
     28      -0.9393      1.00000
     29       3.8953      0.00000
     30       6.4214      0.00000
     31       6.4214      0.00000
     32       6.4215      0.00000
     33       6.9753      0.00000
     34       6.9753      0.00000
     35       6.9753      0.00000
     36      10.0078      0.00000

 k-point     2 :       0.1111    0.0000    0.0000
  band No.  band energies     occupation 
      1     -21.6627      1.00000
      2     -21.6627      1.00000
      3     -21.6627      1.00000
      4     -21.6523      1.00000
      5     -21.6523      1.00000
      6     -21.6522      1.00000
      7     -21.6522      1.00000
      8     -21.6517      1.00000
      9     -21.6517      1.00000
     10     -21.6453      1.00000
     11     -21.6447      1.00000
     12     -21.6447      1.00000
     13     -13.5102      1.00000
     14     -13.1669      1.00000
     15     -13.1554      1.00000
     16     -13.1554      1.00000
     17      -2.5443      1.00000
[...]
     34       8.8280      0.00000
     35       8.8282      0.00000
     36       8.8396      0.00000

 k-point    70 :       0.3333    0.3333    0.3333
  band No.  band energies     occupation 
      1     -21.6674      1.00000
      2     -21.6674      1.00000
      3     -21.6674      1.00000
      4     -21.6646      1.00000
      5     -21.6496      1.00000
      6     -21.6496      1.00000
      7     -21.6496      1.00000
      8     -21.6479      1.00000
      9     -21.6478      1.00000
     10     -21.6478      1.00000
     11     -21.6460      1.00000
     12     -21.6460      1.00000
     13     -13.2869      1.00000
     14     -13.1932      1.00000
     15     -13.1928      1.00000
     16     -13.1924      1.00000
     17      -2.6359      1.00000
     18      -2.6350      1.00000
     19      -2.6342      1.00000
     20      -2.4442      1.00000
     21      -1.4911      1.00000
     22      -1.4888      1.00000
     23      -1.4865      1.00000
     24      -1.2806      1.00000
     25      -1.2806      1.00000
     26      -1.2806      1.00000
     27      -1.1327      1.00000
     28      -1.1327      1.00000
     29       5.8434      0.00000
     30       6.6989      0.00000
     31       6.6995      0.00000
     32       6.7000      0.00000
     33       8.6629      0.00000
     34       8.6668      0.00000
     35       8.6703      0.00000
     36       8.8736      0.00000

 k-point    71 :       0.4444    0.3333    0.3333
  band No.  band energies     occupation 
      1     -21.6686      1.00000
      2     -21.6686      1.00000
      3     -21.6678      1.00000
      4     -21.6668      1.00000
      5     -21.6493      1.00000
      6     -21.6492      1.00000
      7     -21.6475      1.00000
      8     -21.6474      1.00000
      9     -21.6474      1.00000
     10     -21.6472      1.00000
     11     -21.6466      1.00000
     12     -21.6463      1.00000
     13     -13.2529      1.00000
     14     -13.2201      1.00000
     15     -13.1891      1.00000
     16     -13.1891      1.00000
     17      -2.6951      1.00000
     18      -2.6951      1.00000
     19      -2.6454      1.00000
     20      -2.5786      1.00000
     21      -1.4554      1.00000
     22      -1.4554      1.00000
     23      -1.3028      1.00000
     24      -1.2590      1.00000
     25      -1.2590      1.00000
     26      -1.2330      1.00000
     27      -1.1816      1.00000
     28      -1.1784      1.00000
     29       6.0433      0.00000
     30       6.3390      0.00000
     31       6.6205      0.00000
     32       6.6206      0.00000
     33       8.8335      0.00000
     34       8.8335      0.00000
     35       8.8903      0.00000
     36       8.9351      0.00000

 k-point    72 :       0.3333    0.4444    0.3333
  band No.  band energies     occupation 
      1     -21.6686      1.00000
      2     -21.6686      1.00000
      3     -21.6678      1.00000
      4     -21.6668      1.00000
      5     -21.6493      1.00000
      6     -21.6493      1.00000
      7     -21.6475      1.00000
      8     -21.6474      1.00000
      9     -21.6474      1.00000
     10     -21.6472      1.00000
     11     -21.6466      1.00000
     12     -21.6463      1.00000
     13     -13.2529      1.00000
     14     -13.2201      1.00000
     15     -13.1892      1.00000
     16     -13.1890      1.00000
     17      -2.6953      1.00000
     18      -2.6949      1.00000
     19      -2.6454      1.00000
     20      -2.5786      1.00000
     21      -1.4560      1.00000
     22      -1.4548      1.00000
     23      -1.3028      1.00000
     24      -1.2590      1.00000
     25      -1.2589      1.00000
     26      -1.2330      1.00000
     27      -1.1816      1.00000
     28      -1.1784      1.00000
     29       6.0434      0.00000
     30       6.3389      0.00000
     31       6.6205      0.00000
     32       6.6208      0.00000
     33       8.8318      0.00000
     34       8.8340      0.00000
     35       8.8914      0.00000
     36       8.9352      0.00000

 k-point    73 :       0.4444    0.4444    0.3333
  band No.  band energies     occupation 
      1     -21.6696      1.00000
      2     -21.6694      1.00000
      3     -21.6693      1.00000
      4     -21.6687      1.00000
      5     -21.6483      1.00000
      6     -21.6478      1.00000
      7     -21.6478      1.00000
      8     -21.6470      1.00000
      9     -21.6469      1.00000
     10     -21.6467      1.00000
     11     -21.6467      1.00000
     12     -21.6462      1.00000
     13     -13.2285      1.00000
     14     -13.2067      1.00000
     15     -13.2060      1.00000
     16     -13.1956      1.00000
     17      -2.7479      1.00000
     18      -2.7309      1.00000
     19      -2.7294      1.00000
     20      -2.6891      1.00000
     21      -1.3627      1.00000
     22      -1.3121      1.00000
     23      -1.3092      1.00000
     24      -1.2289      1.00000
     25      -1.2213      1.00000
     26      -1.2118      1.00000
     27      -1.2110      1.00000
     28      -1.1696      1.00000
     29       6.1198      0.00000
     30       6.3156      0.00000
     31       6.3167      0.00000
     32       6.4105      0.00000
     33       9.0572      0.00000
     34       9.0745      0.00000
     35       9.0781      0.00000
     36       9.0884      0.00000

 k-point    74 :       0.3333    0.4444    0.4444
  band No.  band energies     occupation 
      1     -21.6696      1.00000
      2     -21.6694      1.00000
      3     -21.6693      1.00000
      4     -21.6687      1.00000
      5     -21.6483      1.00000
      6     -21.6478      1.00000
      7     -21.6477      1.00000
      8     -21.6470      1.00000
      9     -21.6469      1.00000
     10     -21.6468      1.00000
     11     -21.6467      1.00000
     12     -21.6462      1.00000
     13     -13.2285      1.00000
     14     -13.2064      1.00000
     15     -13.2064      1.00000
     16     -13.1956      1.00000
     17      -2.7479      1.00000
     18      -2.7302      1.00000
     19      -2.7302      1.00000
     20      -2.6891      1.00000
     21      -1.3627      1.00000
     22      -1.3106      1.00000
     23      -1.3106      1.00000
     24      -1.2289      1.00000
     25      -1.2213      1.00000
     26      -1.2114      1.00000
     27      -1.2114      1.00000
     28      -1.1696      1.00000
     29       6.1198      0.00000
     30       6.3161      0.00000
     31       6.3162      0.00000
     32       6.4105      0.00000
     33       9.0563      0.00000
     34       9.0771      0.00000
     35       9.0772      0.00000
     36       9.0873      0.00000

 k-point    75 :       0.4444    0.4444    0.4444
  band No.  band energies     occupation 
      1     -21.6708      1.00000
      2     -21.6707      1.00000
      3     -21.6707      1.00000
      4     -21.6704      1.00000
      5     -21.6469      1.00000
      6     -21.6469      1.00000
      7     -21.6468      1.00000
      8     -21.6467      1.00000
      9     -21.6466      1.00000
     10     -21.6466      1.00000
     11     -21.6464      1.00000
     12     -21.6464      1.00000
     13     -13.2141      1.00000
     14     -13.2028      1.00000
     15     -13.2026      1.00000
     16     -13.2025      1.00000
     17      -2.8041      1.00000
     18      -2.8037      1.00000
     19      -2.8033      1.00000
     20      -2.7829      1.00000
     21      -1.2340      1.00000
     22      -1.2331      1.00000
     23      -1.2322      1.00000
     24      -1.2041      1.00000
     25      -1.2041      1.00000
     26      -1.2041      1.00000
     27      -1.1862      1.00000
     28      -1.1862      1.00000
     29       6.0748      0.00000
     30       6.1733      0.00000
     31       6.1737      0.00000
     32       6.1739      0.00000
     33       9.2581      0.00000
     34       9.2628      0.00000
     35       9.2629      0.00000
     36       9.2655      0.00000


--------------------------------------------------------------------------------------------------------


 soft charge-density along one line, spin component           1
         0         1         2         3         4         5         6         7         8         9
 total charge-density along one line
 
 soft charge-density along one line, spin component           2
         0         1         2         3         4         5         6         7         8         9
 total charge-density along one line
 
 pseudopotential strength for first ion, spin component:           1
-25.671   0.000  -0.000   2.648  -0.000   0.000  -0.000  -0.000
  0.000 -25.671   0.000  -0.000   2.648  -0.000   0.000   0.000
 -0.000   0.000 -25.671   0.000  -0.000   2.648   0.000   0.001
  2.648  -0.000   0.000   6.479   0.000  -0.000  -0.000  -0.000
 -0.000   2.648  -0.000   0.000   6.479   0.000  -0.000   0.000
  0.000  -0.000   2.648  -0.000   0.000   6.479  -0.000   0.000
 -0.000   0.000   0.000  -0.000  -0.000  -0.000   1.427   6.998
 -0.000   0.000   0.001  -0.000   0.000   0.000   6.998  34.047
 pseudopotential strength for first ion, spin component:           2
-25.671   0.000  -0.000   2.648  -0.000   0.000  -0.000  -0.000
  0.000 -25.671  -0.000  -0.000   2.648   0.000   0.000   0.000
 -0.000  -0.000 -25.671   0.000   0.000   2.648   0.000   0.001
  2.648  -0.000   0.000   6.479  -0.000  -0.000  -0.000  -0.000
 -0.000   2.648   0.000  -0.000   6.479  -0.000  -0.000   0.000
  0.000   0.000   2.648  -0.000  -0.000   6.479  -0.000   0.000
 -0.000   0.000   0.000  -0.000  -0.000  -0.000   1.427   6.998
 -0.000   0.000   0.001  -0.000   0.000   0.000   6.998  34.047
 total augmentation occupancy for first ion, spin component:           1
  2.003   0.000   0.000   0.002  -0.000   0.000   0.000   0.000
  0.000   2.003   0.000  -0.000   0.002   0.000   0.000   0.000
  0.000   0.000   2.003  -0.000   0.000   0.002  -0.001   0.000
  0.002  -0.000  -0.000   0.015   0.000   0.000   0.000   0.000
 -0.000   0.002   0.000   0.000   0.015  -0.000   0.000   0.000
  0.000   0.000   0.002   0.000   0.000   0.015  -0.001   0.000
  0.000   0.000  -0.001   0.000   0.000  -0.001   0.369  -0.001
  0.000   0.000   0.000   0.000   0.000   0.000  -0.001   0.000
 total augmentation occupancy for first ion, spin component:           2
  0.000   0.000   0.000   0.000   0.000   0.000   0.000   0.000
  0.000   0.000   0.000   0.000   0.000   0.000   0.000   0.000
  0.000   0.000   0.000   0.000   0.000   0.000  -0.000   0.000
  0.000   0.000   0.000   0.000   0.000   0.000   0.000   0.000
  0.000   0.000   0.000   0.000   0.000   0.000   0.000   0.000
  0.000   0.000   0.000   0.000   0.000   0.000  -0.000   0.000
  0.000   0.000  -0.000   0.000   0.000  -0.000   0.000  -0.000
  0.000   0.000   0.000   0.000   0.000   0.000  -0.000   0.000


------------------------ aborting loop because EDIFF is reached ----------------------------------------


 


 total charge     
 
# of ion       s       p       d       tot
------------------------------------------
    1        0.041   5.979   0.000   6.020
    2        0.041   5.979   0.000   6.020
    3        0.041   5.979   0.000   6.020
    4        0.041   5.979   0.000   6.020
    5        1.578   3.548   0.000   5.126
    6        1.578   3.548   0.000   5.126
    7        1.578   3.548   0.000   5.126
    8        1.578   3.548   0.000   5.126
--------------------------------------------------
tot          6.474  38.108   0.000  44.582
 


 magnetization (x)
 
# of ion       s       p       d       tot
------------------------------------------
    1       -0.000   0.000   0.000   0.000
    2       -0.000   0.000   0.000   0.000
    3       -0.000   0.000   0.000   0.000
    4       -0.000   0.000   0.000   0.000
    5        0.000  -0.000   0.000  -0.000
    6        0.000  -0.000   0.000  -0.000
    7        0.000  -0.000   0.000  -0.000
    8        0.000  -0.000   0.000  -0.000
--------------------------------------------------
tot          0.000  -0.000   0.000  -0.000
 
    CHARGE:  cpu time    0.1981: real time    0.1977
    FORLOC:  cpu time    0.0016: real time    0.0016
    FORNL :  cpu time    0.3022: real time    0.3023
    STRESS:  cpu time    0.5772: real time    0.5776
    FORCOR:  cpu time    0.0250: real time    0.0253
    FORHAR:  cpu time    0.0034: real time    0.0038
    MIXING:  cpu time    0.0007: real time    0.0007
    OFIELD:  cpu time    0.0001: real time    0.0002

  FORCE on cell =-STRESS in cart. coord.  units (eV):
  Direction    XX          YY          ZZ          XY          YZ          ZX
  --------------------------------------------------------------------------------------
  Alpha Z    89.56935    89.56935    89.56935
  Ewald    -937.94989  -937.96417  -937.96417     0.00000     0.00000     0.00000
  Hartree   386.63688   386.63270   386.63270    -0.00000    -0.00000    -0.00000
  E(xc)    -251.52742  -251.52742  -251.52742    -0.00000     0.00000     0.00000
  Local    -271.91256  -271.89455  -271.89455    -0.00000    -0.00000    -0.00000
  n-local   235.22714   235.10852   235.34466    -0.35283    -0.34783    -0.34285
  augment    86.04409    86.04404    86.04404    -0.00000     0.00000    -0.00000
  Kinetic   662.66785   661.94653   663.38932    -1.02759    -1.02054    -1.01353
  Fock        0.00000     0.00000     0.00000     0.00000     0.00000     0.00000
  -------------------------------------------------------------------------------------
  Total      -1.24457    -1.24554    -1.24554     0.00000     0.00000     0.00000
  in kB     -10.81448   -10.82292   -10.82292     0.00000     0.00000     0.00000
  external pressure =      -10.82 kB  Pullay stress =        0.00 kB


 VOLUME and BASIS-vectors are now :
 -----------------------------------------------------------------------------
  energy-cutoff  :      700.00
  volume of cell :      184.38
      direct lattice vectors                 reciprocal lattice vectors
     5.691694000  0.000000000  0.000000000     0.175694617  0.000000000  0.000000000
     0.000000000  5.691694000  0.000000000     0.000000000  0.175694617  0.000000000
     0.000000000  0.000000000  5.691694000     0.000000000  0.000000000  0.175694617

  length of vectors
     5.691694000  5.691694000  5.691694000     0.175694617  0.175694617  0.175694617


 FORCES acting on ions
    electron-ion (+dipol)            ewald-force                    non-local-force                 convergence-correction
 -----------------------------------------------------------------------------------------------
   -.139E+01 -.166E-13 0.317E-13   0.131E+01 -.247E-14 -.121E-14   0.903E-01 0.397E-21 -.485E-20   -.115E-04 0.700E-14 0.171E-12
   -.162E+00 0.103E-12 0.101E-12   0.160E+00 0.698E-14 0.221E-14   0.125E-02 0.800E-22 0.833E-22   0.222E-05 0.145E-13 -.125E-12
   0.431E+00 -.120E-13 0.377E-11   -.415E+00 -.184E-14 0.492E-14   -.144E-01 -.249E-22 -.299E-20   -.236E-05 0.313E-15 -.125E-12
   0.431E+00 0.121E-11 -.143E-11   -.415E+00 0.324E-14 -.180E-14   -.144E-01 0.209E-20 -.209E-21   -.236E-05 0.119E-13 0.177E-12
   0.113E+01 0.216E-13 -.183E-05   -.112E+01 -.995E-15 -.467E-14   -.312E-01 -.372E-20 0.432E-20   0.186E-04 0.861E-14 0.159E-12
   0.173E+00 0.186E-11 0.196E-11   -.171E+00 -.149E-14 0.174E-14   -.270E-02 0.559E-20 -.525E-20   -.628E-05 0.143E-13 -.868E-13
   -.333E+00 0.300E-13 0.995E-13   0.326E+00 -.620E-14 0.162E-14   0.118E-01 -.115E-20 -.403E-19   0.605E-05 0.794E-14 -.853E-13
   -.333E+00 0.112E-12 0.672E-13   0.326E+00 0.294E-14 -.234E-14   0.118E-01 0.672E-20 0.360E-20   0.605E-05 0.107E-13 0.160E-12
 -----------------------------------------------------------------------------------------------
   -.524E-01 0.330E-11 -.183E-05   0.278E-15 0.174E-15 0.471E-15   0.524E-01 0.999E-20 -.456E-19   0.104E-04 0.752E-13 0.245E-12
 
 
 POSITION                                       TOTAL-FORCE (eV/Angst)
 -----------------------------------------------------------------------------------
      0.00000      0.00000      0.00000         0.008407      0.000000      0.000000
      0.00000      2.84585      2.84585        -0.000594      0.000000      0.000000
      2.84585      0.00000      2.84585         0.001701      0.000000      0.000000
      2.84585      2.84585      0.00000         0.001701      0.000000      0.000000
      2.85585      0.00000      0.00000        -0.019707     -0.000000     -0.000000
      2.84585      2.84585      2.84585        -0.001044      0.000000      0.000000
      0.00000      0.00000      2.84585         0.004768      0.000000      0.000000
      0.00000      2.84585      0.00000         0.004768      0.000000      0.000000
 -----------------------------------------------------------------------------------
    total drift:                                0.000027      0.000000     -0.000002


--------------------------------------------------------------------------------------------------------



  FREE ENERGIE OF THE ION-ELECTRON SYSTEM (eV)
  ---------------------------------------------------
  free  energy   TOTEN  =       -27.96902480 eV

  energy  without entropy=      -27.96902480  energy(sigma->0) =      -27.96902480
 


--------------------------------------------------------------------------------------------------------


    POTLOK:  cpu time    0.2305: real time    0.2304


--------------------------------------------------------------------------------------------------------


 stress matrix after NEB project (eV)
     -1.24457      0.00000      0.00000
      0.00000     -1.24554      0.00000
      0.00000      0.00000     -1.24554
  FORCES: max atom, RMS     0.019707    0.007998
  FORCE total and by dimension    0.022622    0.019707
  Stress total and by dimension    2.156781    1.245542
     LOOP+:  cpu time   56.1637: real time   56.1895
    4ORBIT:  cpu time    0.0000: real time    0.0000
 


 total charge     
 
# of ion       s       p       d       tot
------------------------------------------
    1        0.041   5.979   0.000   6.020
    2        0.041   5.979   0.000   6.020
    3        0.041   5.979   0.000   6.020
    4        0.041   5.979   0.000   6.020
    5        1.578   3.548   0.000   5.126
    6        1.578   3.548   0.000   5.126
    7        1.578   3.548   0.000   5.126
    8        1.578   3.548   0.000   5.126
--------------------------------------------------
tot          6.474  38.108   0.000  44.582
 


 magnetization (x)
 
# of ion       s       p       d       tot
------------------------------------------
    1       -0.000   0.000   0.000   0.000
    2       -0.000   0.000   0.000   0.000
    3       -0.000   0.000   0.000   0.000
    4       -0.000   0.000   0.000   0.000
    5        0.000  -0.000   0.000  -0.000
    6        0.000  -0.000   0.000  -0.000
    7        0.000  -0.000   0.000  -0.000
    8        0.000  -0.000   0.000  -0.000
--------------------------------------------------
tot          0.000  -0.000   0.000  -0.000
 

 total amount of memory used by VASP MPI-rank0    43776. kBytes
=======================================================================

   base      :      30000. kBytes
   nonl-proj :       3268. kBytes
   fftplans  :        842. kBytes
   grid      :       2230. kBytes
   one-center:          6. kBytes
   wavefun   :       7430. kBytes
 
  
  
 General timing and accounting informations for this job:
 ========================================================
  
                  Total CPU time used (sec):       62.746
                            User time (sec):       61.599
                          System time (sec):        1.148
                         Elapsed time (sec):       63.661
  
                   Maximum memory used (kb):      236936.
                   Average memory used (kb):           0.
  
                          Minor page faults:        22521
                          Major page faults:            0
                 Voluntary context switches:         3309
