 vasp.6.2.1 16May21 (build Oct 27 2021 18:14:32) complex                        
  
 executed on             LinuxIFC date 2021.10.28  10:31:15
 running on    4 total cores
 distrk:  each k-point on    4 cores,    1 groups
 distr:  one band on NCORE=   1 cores,    4 groups


--------------------------------------------------------------------------------------------------------


 INCAR:
   ALGO = Fast
   EDIFF = 1e-05
   EDIFFG = -0.02
   ENAUG = 1360
   ENCUT = 680
   IBRION = 2
   ISIF = 3
   ISMEAR = 2
   ISPIN = 2
   KSPACING = 0.22
   LAECHG = True
   LASPH = True
   LCHARG = False
   LELF = True
   LMIXTAU = True
   LORBIT = 11
   LREAL = Auto
   LVTOT = True
   LWAVE = False
   MAGMOM = 2*0.6
   NELM = 200
   NSW = 99
   PREC = Accurate
   SIGMA = 0.2

 POTCAR:    PAW_PBE Si 05Jan2001                  
 WARNING: For LVTOT=.TRUE., VASP.5.x writes the TOTAL local potential to the
     file LOCPOT. If you want only the Hartree contributions, use LVHAR=.TRUE.
     instead. 

 POTCAR:    PAW_PBE Si 05Jan2001                  
   VRHFIN =Si: s2p2                                                                                 
   LEXCH  = PE                                                                                      
   EATOM  =   103.0669 eV,    7.5752 Ry                                                             
                                                                                                    
   TITEL  = PAW_PBE Si 05Jan2001                                                                    
   LULTRA =        F    use ultrasoft PP ?                                                          
   IUNSCR =        1    unscreen: 0-lin 1-nonlin 2-no                                               
   RPACOR =    1.500    partial core radius                                                         
   POMASS =   28.085; ZVAL   =    4.000    mass and valenz                                          
   RCORE  =    1.900    outmost cutoff radius                                                       
   RWIGS  =    2.480; RWIGS  =    1.312    wigner-seitz radius (au A)                               
   ENMAX  =  245.345; ENMIN  =  184.009 eV                                                          
   ICORE  =        2    local potential                                                             
   LCOR   =        T    correct aug charges                                                         
   LPAW   =        T    paw PP                                                                      
   EAUG   =  322.069                                                                                
   DEXC   =    0.000                                                                                
   RMAX   =    1.950    core radius for proj-oper                                                   
   RAUG   =    1.300    factor for augmentation sphere                                              
   RDEP   =    1.993    radius for radial grids                                                     
   RDEPT  =    1.837    core radius for aug-charge                                                  
                                                                                                    
   Atomic configuration                                                                             
    6 entries                                                                                       
     n  l   j            E        occ.                                                              
     1  0  0.50     -1785.8828   2.0000                                                             
     2  0  0.50      -139.4969   2.0000                                                             
     2  1  1.50       -95.5546   6.0000                                                             
     3  0  0.50       -10.8127   2.0000                                                             
     3  1  0.50        -4.0811   2.0000                                                             
     3  2  1.50        -4.0817   0.0000                                                             
   Description                                                                                      
     l       E           TYP  RCUT    TYP  RCUT                                                     
     0    -10.8127223     23  1.900                                                                 
     0     -7.6451159     23  1.900                                                                 
     1     -4.0811372     23  1.900                                                                 
     1      2.4879257     23  1.900                                                                 
     2     -4.0817478      7  1.900                                                                 
  local pseudopotential read in
  partial core-charges read in
  partial kinetic energy density read in
  atomic valenz-charges read in
  non local Contribution for L=           0  read in
    real space projection operators read in
  non local Contribution for L=           0  read in
    real space projection operators read in
  non local Contribution for L=           1  read in
    real space projection operators read in
  non local Contribution for L=           1  read in
    real space projection operators read in
    PAW grid and wavefunctions read in
 
   number of l-projection  operators is LMAX  =           4
   number of lm-projection operators is LMMAX =           8
 
 -----------------------------------------------------------------------------
|                                                                             |
|               ----> ADVICE to this user running VASP <----                  |
|                                                                             |
|     You have a (more or less) 'small supercell' and for smaller cells       |
|     it is recommended to use the reciprocal-space projection scheme!        |
|     The real-space optimization is not efficient for small cells and it     |
|     is also less accurate ...                                               |
|     Therefore, set LREAL=.FALSE. in the INCAR file.                         |
|                                                                             |
 -----------------------------------------------------------------------------

 Optimization of the real space projectors (new method)

 maximal supplied QI-value         = 19.84
 optimisation between [QCUT,QGAM] = [ 13.29, 26.59] = [ 49.49,197.96] Ry 
 Optimized for a Real-space Cutoff    1.12 Angstroem

   l    n(q)    QCUT    max X(q) W(low)/X(q) W(high)/X(q)  e(spline) 
   0      9    13.294   159.560    0.23E-03    0.88E-04    0.53E-07
   0      9    13.294   115.863    0.22E-03    0.87E-04    0.52E-07
   1      8    13.294    88.339    0.81E-04    0.17E-03    0.12E-06
   1      8    13.294    48.592    0.79E-04    0.17E-03    0.12E-06
  PAW_PBE Si 05Jan2001                  :
 energy of atom  1       EATOM= -103.0669
 kinetic energy error for atom=    0.0003 (will be added to EATOM!!)
 
 
 POSCAR: Si2
  positions in direct lattice
  No initial velocities read in
 exchange correlation table for  LEXCH =        8
   RHO(1)=    0.500       N(1)  =     2000
   RHO(2)=  100.500       N(2)  =     4000
 


--------------------------------------------------------------------------------------------------------


 ion  position               nearest neighbor table
   1  0.250  0.250  0.250-   2 2.37   2 2.37   2 2.37   2 2.37
   2  0.000  0.000  0.000-   1 2.37   1 2.37   1 2.37   1 2.37
 
  LATTYP: Found a face centered cubic cell.
 ALAT       =     5.4687280757
  
  Lattice vectors:
  
 A1 = (   3.3488980000,   0.0000000000,   1.9334870000)
 A2 = (   1.1162990000,   3.1573720000,   1.9334870000)
 A3 = (   0.0000000000,   0.0000000000,   3.8669750000)


Analysis of symmetry for initial positions (statically):
=====================================================================
 Subroutine PRICEL returns:
 Original cell was already a primitive cell.
 

 Routine SETGRP: Setting up the symmetry group for a 
 face centered cubic supercell.


 Subroutine GETGRP returns: Found 48 space group operations
 (whereof 24 operations were pure point group operations)
 out of a pool of 48 trial point group operations.


The static configuration has the point symmetry T_d .
 The point group associated with its full space group is O_h .


Analysis of symmetry for dynamics (positions and initial velocities):
=====================================================================
 Subroutine PRICEL returns:
 Original cell was already a primitive cell.
 

 Routine SETGRP: Setting up the symmetry group for a 
 face centered cubic supercell.


 Subroutine GETGRP returns: Found 48 space group operations
 (whereof 24 operations were pure point group operations)
 out of a pool of 48 trial point group operations.


The dynamic configuration has the point symmetry T_d .
 The point group associated with its full space group is O_h .


Analysis of structural, dynamic, and magnetic symmetry:
=====================================================================
 Subroutine PRICEL returns:
 Original cell was already a primitive cell.
 

 Routine SETGRP: Setting up the symmetry group for a 
 face centered cubic supercell.


 Subroutine GETGRP returns: Found 48 space group operations
 (whereof 24 operations were pure point group operations)
 out of a pool of 48 trial point group operations.


The overall configuration has the point symmetry T_d .
 The point group associated with its full space group is O_h .


 Subroutine INISYM returns: Found 48 space group operations
 (whereof 24 operations are pure point group operations),
 and found     1 'primitive' translations


----------------------------------------------------------------------------------------

                                     Primitive cell                                     

  volume of cell :      40.8883

  direct lattice vectors                    reciprocal lattice vectors
     3.348898000  0.000000000  1.933487000     0.298605691 -0.105573000  0.000000000
     1.116299000  3.157372000  1.933487000     0.000000000  0.316719094  0.000000000
     0.000000000  0.000000000  3.866975000    -0.149302807 -0.105573020  0.258600069

  length of vectors
     3.866974243  3.866974707  3.866975000     0.316719145  0.316719094  0.316719096

  position of ions in fractional coordinates (direct lattice)
     0.250000000  0.250000000  0.250000000
     0.000000000  0.000000000  0.000000000

  ion indices of the primitive-cell ions
   primitive index   ion index
                 1           1
                 2           2

----------------------------------------------------------------------------------------

 
 -----------------------------------------------------------------------------
|                                                                             |
|           W    W    AA    RRRRR   N    N  II  N    N   GGGG   !!!           |
|           W    W   A  A   R    R  NN   N  II  NN   N  G    G  !!!           |
|           W    W  A    A  R    R  N N  N  II  N N  N  G       !!!           |
|           W WW W  AAAAAA  RRRRR   N  N N  II  N  N N  G  GGG   !            |
|           WW  WW  A    A  R   R   N   NN  II  N   NN  G    G                |
|           W    W  A    A  R    R  N    N  II  N    N   GGGG   !!!           |
|                                                                             |
|     The requested file  could not be found or opened for reading            |
|     k-point information. Automatic k-point generation is used as a          |
|     fallback, which may lead to unwanted results.                           |
|                                                                             |
 -----------------------------------------------------------------------------

 

Automatic generation of k-mesh.
 Grid dimensions derived from KSPACING:
 generate k-points for:   10   10   10

 Generating k-lattice:

  Cartesian coordinates                     Fractional coordinates (reciprocal lattice)
     0.029860569 -0.010557300  0.000000000     0.100000000 -0.000000000  0.000000000
     0.000000000  0.031671909  0.000000000     0.000000000  0.100000000  0.000000000
    -0.014930281 -0.010557302  0.025860007    -0.000000000  0.000000000  0.100000000

  Length of vectors
     0.031671914  0.031671909  0.031671910

  Shift w.r.t. Gamma in fractional coordinates (k-lattice)
     0.000000000  0.000000000  0.000000000

 
 Subroutine IBZKPT returns following result:
 ===========================================
 
 Found     47 irreducible k-points:
 
 Following reciprocal coordinates:
            Coordinates               Weight
  0.000000  0.000000  0.000000      1.000000
  0.100000  0.000000  0.000000      8.000000
  0.200000  0.000000  0.000000      8.000000
  0.300000 -0.000000  0.000000      8.000000
  0.400000  0.000000  0.000000      8.000000
  0.500000  0.000000  0.000000      4.000000
  0.100000  0.100000  0.000000      6.000000
  0.200000  0.100000  0.000000     24.000000
  0.300000  0.100000  0.000000     24.000000
  0.400000  0.100000  0.000000     24.000000
  0.500000  0.100000  0.000000     24.000000
 -0.400000  0.100000  0.000000     24.000000
 -0.300000  0.100000  0.000000     24.000000
 -0.200000  0.100000  0.000000     24.000000
 -0.100000  0.100000  0.000000     12.000000
  0.200000  0.200000  0.000000      6.000000
  0.300000  0.200000  0.000000     24.000000
  0.400000  0.200000  0.000000     24.000000
  0.500000  0.200000  0.000000     24.000000
 -0.400000  0.200000  0.000000     24.000000
 -0.300000  0.200000  0.000000     24.000000
 -0.200000  0.200000  0.000000     12.000000
  0.300000  0.300000  0.000000      6.000000
  0.400000  0.300000  0.000000     24.000000
  0.500000  0.300000  0.000000     24.000000
 -0.400000  0.300000  0.000000     24.000000
 -0.300000  0.300000  0.000000     12.000000
  0.400000  0.400000  0.000000      6.000000
  0.500000  0.400000  0.000000     24.000000
 -0.400000  0.400000  0.000000     12.000000
  0.500000  0.500000  0.000000      3.000000
  0.300000  0.200000  0.100000     24.000000
  0.400000  0.200000  0.100000     48.000000
  0.500000  0.200000  0.100000     48.000000
 -0.400000  0.200000  0.100000     24.000000
  0.400000  0.300000  0.100000     24.000000
  0.500000  0.300000  0.100000     48.000000
 -0.400000  0.300000  0.100000     48.000000
 -0.300000  0.300000  0.100000     48.000000
 -0.200000  0.300000  0.100000     24.000000
  0.500000  0.400000  0.100000     24.000000
 -0.400000  0.400000  0.100000     48.000000
 -0.300000  0.400000  0.100000     24.000000
 -0.400000  0.500000  0.100000     12.000000
 -0.400000  0.400000  0.200000     24.000000
 -0.300000  0.400000  0.200000     24.000000
 -0.300000  0.500000  0.200000     12.000000
 
 Following cartesian coordinates:
            Coordinates               Weight
  0.000000  0.000000  0.000000      1.000000
  0.029861 -0.010557  0.000000      8.000000
  0.059721 -0.021115  0.000000      8.000000
  0.089582 -0.031672  0.000000      8.000000
  0.119442 -0.042229  0.000000      8.000000
  0.149303 -0.052786  0.000000      4.000000
  0.029861  0.021115  0.000000      6.000000
  0.059721  0.010557  0.000000     24.000000
  0.089582  0.000000  0.000000     24.000000
  0.119442 -0.010557  0.000000     24.000000
  0.149303 -0.021115  0.000000     24.000000
 -0.119442  0.073901  0.000000     24.000000
 -0.089582  0.063344  0.000000     24.000000
 -0.059721  0.052787  0.000000     24.000000
 -0.029861  0.042229  0.000000     12.000000
  0.059721  0.042229  0.000000      6.000000
  0.089582  0.031672  0.000000     24.000000
  0.119442  0.021115  0.000000     24.000000
  0.149303  0.010557  0.000000     24.000000
 -0.119442  0.105573  0.000000     24.000000
 -0.089582  0.095016  0.000000     24.000000
 -0.059721  0.084458  0.000000     12.000000
  0.089582  0.063344  0.000000      6.000000
  0.119442  0.052787  0.000000     24.000000
  0.149303  0.042229  0.000000     24.000000
 -0.119442  0.137245  0.000000     24.000000
 -0.089582  0.126688  0.000000     12.000000
  0.119442  0.084458  0.000000      6.000000
  0.149303  0.073901  0.000000     24.000000
 -0.119442  0.168917  0.000000     12.000000
  0.149303  0.105573  0.000000      3.000000
  0.074651  0.021115  0.025860     24.000000
  0.104512  0.010557  0.025860     48.000000
  0.134373  0.000000  0.025860     48.000000
 -0.134373  0.095016  0.025860     24.000000
  0.104512  0.042229  0.025860     24.000000
  0.134373  0.031672  0.025860     48.000000
 -0.134373  0.126688  0.025860     48.000000
 -0.104512  0.116130  0.025860     48.000000
 -0.074651  0.105573  0.025860     24.000000
  0.134373  0.063344  0.025860     24.000000
 -0.134373  0.158360  0.025860     48.000000
 -0.104512  0.147802  0.025860     24.000000
 -0.134373  0.190031  0.025860     12.000000
 -0.149303  0.147802  0.051720     24.000000
 -0.119442  0.137245  0.051720     24.000000
 -0.119442  0.168917  0.051720     12.000000
 


--------------------------------------------------------------------------------------------------------




 Dimension of arrays:
   k-points           NKPTS =     47   k-points in BZ     NKDIM =     47   number of bands    NBANDS=     12
   number of dos      NEDOS =    301   number of ions     NIONS =      2
   non local maximal  LDIM  =      4   non local SUM 2l+1 LMDIM =      8
   total plane-waves  NPLWV =  46656
   max r-space proj   IRMAX =   6824   max aug-charges    IRDMAX=  38346
   dimension x,y,z NGX =    36 NGY =   36 NGZ =   36
   dimension x,y,z NGXF=    72 NGYF=   72 NGZF=   72
   support grid    NGXF=    72 NGYF=   72 NGZF=   72
   ions per type =               2
   NGX,Y,Z   is equivalent  to a cutoff of  15.48, 15.48, 15.48 a.u.
   NGXF,Y,Z  is equivalent  to a cutoff of  30.95, 30.95, 30.95 a.u.

 SYSTEM =  unknown system                          
 POSCAR =  Si2                                     

 Startparameter for this run:
   NWRITE =      2    write-flag & timer
   PREC   = accura    normal or accurate (medium, high low for compatibility)
   ISTART =      0    job   : 0-new  1-cont  2-samecut
   ICHARG =      2    charge: 1-file 2-atom 10-const
   ISPIN  =      2    spin polarized calculation?
   LNONCOLLINEAR =      F non collinear calculations
   LSORBIT =      F    spin-orbit coupling
   INIWAV =      1    electr: 0-lowe 1-rand  2-diag
   LASPH  =      T    aspherical Exc in radial PAW
 Electronic Relaxation 1
   ENCUT  =  680.0 eV  49.98 Ry    7.07 a.u.   8.22  8.22  8.22*2*pi/ulx,y,z
   ENINI  =  680.0     initial cutoff
   ENAUG  = 1360.0 eV  augmentation charge cutoff
   NELM   =    200;   NELMIN=  2; NELMDL= -5     # of ELM steps 
   EDIFF  = 0.1E-04   stopping-criterion for ELM
   LREAL  =      T    real-space projection
   NLSPLINE    = F    spline interpolate recip. space projectors
   LCOMPAT=      F    compatible to vasp.4.4
   GGA_COMPAT  = T    GGA compatible to vasp.4.4-vasp.4.6
   LMAXPAW     = -100 max onsite density
   LMAXMIX     =    2 max onsite mixed and CHGCAR
   VOSKOWN=      0    Vosko Wilk Nusair interpolation
   ROPT   =   -0.00025
 Ionic relaxation
   EDIFFG = -.2E-01   stopping-criterion for IOM
   NSW    =     99    number of steps for IOM
   NBLOCK =      1;   KBLOCK =     99    inner block; outer block 
   IBRION =      2    ionic relax: 0-MD 1-quasi-New 2-CG
   NFREE  =      1    steps in history (QN), initial steepest desc. (CG)
   ISIF   =      3    stress and relaxation
   IWAVPR =     11    prediction:  0-non 1-charg 2-wave 3-comb
   ISYM   =      2    0-nonsym 1-usesym 2-fastsym
   LCORR  =      T    Harris-Foulkes like correction to forces

   POTIM  = 0.5000    time-step for ionic-motion
   TEIN   =    0.0    initial temperature
   TEBEG  =    0.0;   TEEND  =   0.0 temperature during run
   SMASS  =  -3.00    Nose mass-parameter (am)
   estimated Nose-frequenzy (Omega)   =  0.10E-29 period in steps = 0.13E+47 mass=  -0.342E-27a.u.
   SCALEE = 1.0000    scale energy and forces
   NPACO  =    256;   APACO  = 16.0  distance and # of slots for P.C.
   PSTRESS=    0.0 pullay stress

  Mass of Ions in am
   POMASS =  28.09
  Ionic Valenz
   ZVAL   =   4.00
  Atomic Wigner-Seitz radii
   RWIGS  =  -1.00
  virtual crystal weights 
   VCA    =   1.00
   NELECT =       8.0000    total number of electrons
   NUPDOWN=      -1.0000    fix difference up-down

 DOS related values:
   EMIN   =  10.00;   EMAX   =-10.00  energy-range for DOS
   EFERMI =   0.00
   ISMEAR =     2;   SIGMA  =   0.20  broadening in eV -4-tet -1-fermi 0-gaus

 Electronic relaxation 2 (details)
   IALGO  =     68    algorithm
   LDIAG  =      T    sub-space diagonalisation (order eigenvalues)
   LSUBROT=      F    optimize rotation matrix (better conditioning)
   TURBO    =      0    0=normal 1=particle mesh
   IRESTART =      0    0=no restart 2=restart with 2 vectors
   NREBOOT  =      0    no. of reboots
   NMIN     =      0    reboot dimension
   EREF     =   0.00    reference energy to select bands
   IMIX   =      4    mixing-type and parameters
     AMIX     =   0.40;   BMIX     =  1.00
     AMIX_MAG =   1.60;   BMIX_MAG =  1.00
     AMIN     =   0.10
     WC   =   100.;   INIMIX=   1;  MIXPRE=   1;  MAXMIX= -45

 Intra band minimization:
   WEIMIN = 0.0010     energy-eigenvalue tresh-hold
   EBREAK =  0.21E-06  absolut break condition
   DEPER  =   0.30     relativ break condition  

   TIME   =   0.40     timestep for ELM

  volume/ion in A,a.u.               =      20.44       137.96
  Fermi-wavevector in a.u.,A,eV,Ry     =   0.950397  1.795990 12.289528  0.903255
  Thomas-Fermi vector in A             =   2.078770
 
 Write flags
   LWAVE        =      F    write WAVECAR
   LDOWNSAMPLE  =      F    k-point downsampling of WAVECAR
   LCHARG       =      F    write CHGCAR
   LVTOT        =      T    write LOCPOT, total local potential
   LVHAR        =      F    write LOCPOT, Hartree potential only
   LELF         =      T    write electronic localiz. function (ELF)
   LORBIT       =     11    0 simple, 1 ext, 2 COOP (PROOUT), +10 PAW based schemes


 Dipole corrections
   LMONO  =      F    monopole corrections only (constant potential shift)
   LDIPOL =      F    correct potential (dipole corrections)
   IDIPOL =      0    1-x, 2-y, 3-z, 4-all directions 
   EPSILON=  1.0000000 bulk dielectric constant

 Exchange correlation treatment:
   GGA     =    --    GGA type
   LEXCH   =     8    internal setting for exchange type
   VOSKOWN=      0    Vosko Wilk Nusair interpolation
   LHFCALC =     F    Hartree Fock is set to
   LHFONE  =     F    Hartree Fock one center treatment
   AEXX    =    0.0000 exact exchange contribution

 Linear response parameters
   LEPSILON=     F    determine dielectric tensor
   LRPA    =     F    only Hartree local field effects (RPA)
   LNABLA  =     F    use nabla operator in PAW spheres
   LVEL    =     F    velocity operator in full k-point grid
   LINTERFAST=   F  fast interpolation
   KINTER  =     0    interpolate to denser k-point grid
   CSHIFT  =0.1000    complex shift for real part using Kramers Kronig
   OMEGAMAX=  -1.0    maximum frequency
   DEG_THRESHOLD= 0.2000000E-02 threshold for treating states as degnerate
   RTIME   =   -0.100 relaxation time in fs
  (WPLASMAI=    0.000 imaginary part of plasma frequency in eV, 0.658/RTIME)
   DFIELD  = 0.0000000 0.0000000 0.0000000 field for delta impulse in time
 
 Orbital magnetization related:
   ORBITALMAG=     F  switch on orbital magnetization
   LCHIMAG   =     F  perturbation theory with respect to B field
   DQ        =  0.001000  dq finite difference perturbation B field
   LLRAUG    =     F  two centre corrections for induced B field



--------------------------------------------------------------------------------------------------------


 conjugate gradient relaxation of ions
 charge density and potential will be updated during run
 spin polarized calculation
 RMM-DIIS sequential band-by-band and
  variant of blocked Davidson during initial phase
 perform sub-space diagonalisation
    before iterative eigenvector-optimisation
 modified Broyden-mixing scheme, WC =      100.0
 initial mixing is a Kerker type mixing with AMIX =  0.4000 and BMIX =      1.0000
 Hartree-type preconditioning will be used
 using additional bands            8
 real space projection scheme for non local part
 use partial core corrections
 calculate Harris-corrections to forces 
   (improved forces if not selfconsistent)
 use gradient corrections 
 use of overlap-Matrix (Vanderbilt PP)
 Methfessel and Paxton  Order N= 2 SIGMA  =   0.20


--------------------------------------------------------------------------------------------------------


  energy-cutoff  :      680.00
  volume of cell :       40.89
      direct lattice vectors                 reciprocal lattice vectors
     3.348898000  0.000000000  1.933487000     0.298605691 -0.105573000  0.000000000
     1.116299000  3.157372000  1.933487000     0.000000000  0.316719094  0.000000000
     0.000000000  0.000000000  3.866975000    -0.149302807 -0.105573020  0.258600069

  length of vectors
     3.866974243  3.866974707  3.866975000     0.316719145  0.316719094  0.316719096


 
 k-points in units of 2pi/SCALE and weight: read from INCAR                         
   0.00000000  0.00000000  0.00000000       0.001
   0.02986057 -0.01055730  0.00000000       0.008
   0.05972114 -0.02111460  0.00000000       0.008
   0.08958171 -0.03167190  0.00000000       0.008
   0.11944228 -0.04222920  0.00000000       0.008
   0.14930285 -0.05278650  0.00000000       0.004
   0.02986057  0.02111461  0.00000000       0.006
   0.05972114  0.01055731  0.00000000       0.024
   0.08958171  0.00000001  0.00000000       0.024
   0.11944228 -0.01055729  0.00000000       0.024
   0.14930285 -0.02111459  0.00000000       0.024
  -0.11944228  0.07390111  0.00000000       0.024
  -0.08958171  0.06334381  0.00000000       0.024
  -0.05972114  0.05278651  0.00000000       0.024
  -0.02986057  0.04222921  0.00000000       0.012
   0.05972114  0.04222922  0.00000000       0.006
   0.08958171  0.03167192  0.00000000       0.024
   0.11944228  0.02111462  0.00000000       0.024
   0.14930285  0.01055732  0.00000000       0.024
  -0.11944228  0.10557302  0.00000000       0.024
  -0.08958171  0.09501572  0.00000000       0.024
  -0.05972114  0.08445842  0.00000000       0.012
   0.08958171  0.06334383  0.00000000       0.006
   0.11944228  0.05278653  0.00000000       0.024
   0.14930285  0.04222923  0.00000000       0.024
  -0.11944228  0.13724493  0.00000000       0.024
  -0.08958171  0.12668763  0.00000000       0.012
   0.11944228  0.08445844  0.00000000       0.006
   0.14930285  0.07390114  0.00000000       0.024
  -0.11944228  0.16891684  0.00000000       0.012
   0.14930285  0.10557305  0.00000000       0.003
   0.07465143  0.02111462  0.02586001       0.024
   0.10451200  0.01055732  0.02586001       0.048
   0.13437256  0.00000002  0.02586001       0.048
  -0.13437256  0.09501572  0.02586001       0.024
   0.10451200  0.04222923  0.02586001       0.024
   0.13437256  0.03167193  0.02586001       0.048
  -0.13437256  0.12668763  0.02586001       0.048
  -0.10451199  0.11613033  0.02586001       0.048
  -0.07465142  0.10557303  0.02586001       0.024
   0.13437256  0.06334384  0.02586001       0.024
  -0.13437256  0.15835954  0.02586001       0.048
  -0.10451199  0.14780224  0.02586001       0.024
  -0.13437256  0.19003145  0.02586001       0.012
  -0.14930284  0.14780223  0.05172001       0.024
  -0.11944227  0.13724493  0.05172001       0.024
  -0.11944227  0.16891684  0.05172001       0.012
 
 k-points in reciprocal lattice and weights: read from INCAR                         
   0.00000000  0.00000000  0.00000000       0.001
   0.10000000  0.00000000  0.00000000       0.008
   0.20000000  0.00000000  0.00000000       0.008
   0.30000000 -0.00000000  0.00000000       0.008
   0.40000000  0.00000000  0.00000000       0.008
   0.50000000  0.00000000  0.00000000       0.004
   0.10000000  0.10000000  0.00000000       0.006
   0.20000000  0.10000000  0.00000000       0.024
   0.30000000  0.10000000  0.00000000       0.024
   0.40000000  0.10000000  0.00000000       0.024
   0.50000000  0.10000000  0.00000000       0.024
  -0.40000000  0.10000000  0.00000000       0.024
  -0.30000000  0.10000000  0.00000000       0.024
  -0.20000000  0.10000000  0.00000000       0.024
  -0.10000000  0.10000000  0.00000000       0.012
   0.20000000  0.20000000  0.00000000       0.006
   0.30000000  0.20000000  0.00000000       0.024
   0.40000000  0.20000000  0.00000000       0.024
   0.50000000  0.20000000  0.00000000       0.024
  -0.40000000  0.20000000  0.00000000       0.024
  -0.30000000  0.20000000  0.00000000       0.024
  -0.20000000  0.20000000  0.00000000       0.012
   0.30000000  0.30000000  0.00000000       0.006
   0.40000000  0.30000000  0.00000000       0.024
   0.50000000  0.30000000  0.00000000       0.024
  -0.40000000  0.30000000  0.00000000       0.024
  -0.30000000  0.30000000  0.00000000       0.012
   0.40000000  0.40000000  0.00000000       0.006
   0.50000000  0.40000000  0.00000000       0.024
  -0.40000000  0.40000000  0.00000000       0.012
   0.50000000  0.50000000  0.00000000       0.003
   0.30000000  0.20000000  0.10000000       0.024
   0.40000000  0.20000000  0.10000000       0.048
   0.50000000  0.20000000  0.10000000       0.048
  -0.40000000  0.20000000  0.10000000       0.024
   0.40000000  0.30000000  0.10000000       0.024
   0.50000000  0.30000000  0.10000000       0.048
  -0.40000000  0.30000000  0.10000000       0.048
  -0.30000000  0.30000000  0.10000000       0.048
  -0.20000000  0.30000000  0.10000000       0.024
   0.50000000  0.40000000  0.10000000       0.024
  -0.40000000  0.40000000  0.10000000       0.048
  -0.30000000  0.40000000  0.10000000       0.024
  -0.40000000  0.50000000  0.10000000       0.012
  -0.40000000  0.40000000  0.20000000       0.024
  -0.30000000  0.40000000  0.20000000       0.024
  -0.30000000  0.50000000  0.20000000       0.012
 
 position of ions in fractional coordinates (direct lattice) 
   0.25000000  0.25000000  0.25000000
   0.00000000  0.00000000  0.00000000
 
 position of ions in cartesian coordinates  (Angst):
   1.11629925  0.78934300  1.93348725
   0.00000000  0.00000000  0.00000000
 


--------------------------------------------------------------------------------------------------------


 k-point   1 :   0.0000 0.0000 0.0000  plane waves:    1639
 k-point   2 :   0.1000 0.0000 0.0000  plane waves:    1648
 k-point   3 :   0.2000 0.0000 0.0000  plane waves:    1654
 k-point   4 :   0.3000-0.0000 0.0000  plane waves:    1637
 k-point   5 :   0.4000 0.0000 0.0000  plane waves:    1646
 k-point   6 :   0.5000 0.0000 0.0000  plane waves:    1676
 k-point   7 :   0.1000 0.1000 0.0000  plane waves:    1643
 k-point   8 :   0.2000 0.1000 0.0000  plane waves:    1647
 k-point   9 :   0.3000 0.1000 0.0000  plane waves:    1636
 k-point  10 :   0.4000 0.1000 0.0000  plane waves:    1639
 k-point  11 :   0.5000 0.1000 0.0000  plane waves:    1653
 k-point  12 :  -0.4000 0.1000 0.0000  plane waves:    1648
 k-point  13 :  -0.3000 0.1000 0.0000  plane waves:    1644
 k-point  14 :  -0.2000 0.1000 0.0000  plane waves:    1645
 k-point  15 :  -0.1000 0.1000 0.0000  plane waves:    1649
 k-point  16 :   0.2000 0.2000 0.0000  plane waves:    1640
 k-point  17 :   0.3000 0.2000 0.0000  plane waves:    1647
 k-point  18 :   0.4000 0.2000 0.0000  plane waves:    1644
 k-point  19 :   0.5000 0.2000 0.0000  plane waves:    1645
 k-point  20 :  -0.4000 0.2000 0.0000  plane waves:    1645
 k-point  21 :  -0.3000 0.2000 0.0000  plane waves:    1645
 k-point  22 :  -0.2000 0.2000 0.0000  plane waves:    1652
 k-point  23 :   0.3000 0.3000 0.0000  plane waves:    1652
 k-point  24 :   0.4000 0.3000 0.0000  plane waves:    1649
 k-point  25 :   0.5000 0.3000 0.0000  plane waves:    1649
 k-point  26 :  -0.4000 0.3000 0.0000  plane waves:    1652
 k-point  27 :  -0.3000 0.3000 0.0000  plane waves:    1642
 k-point  28 :   0.4000 0.4000 0.0000  plane waves:    1652
 k-point  29 :   0.5000 0.4000 0.0000  plane waves:    1646
 k-point  30 :  -0.4000 0.4000 0.0000  plane waves:    1650
 k-point  31 :   0.5000 0.5000 0.0000  plane waves:    1660
 k-point  32 :   0.3000 0.2000 0.1000  plane waves:    1648
 k-point  33 :   0.4000 0.2000 0.1000  plane waves:    1646
 k-point  34 :   0.5000 0.2000 0.1000  plane waves:    1643
 k-point  35 :  -0.4000 0.2000 0.1000  plane waves:    1642
 k-point  36 :   0.4000 0.3000 0.1000  plane waves:    1651
 k-point  37 :   0.5000 0.3000 0.1000  plane waves:    1650
 k-point  38 :  -0.4000 0.3000 0.1000  plane waves:    1643
 k-point  39 :  -0.3000 0.3000 0.1000  plane waves:    1647
 k-point  40 :  -0.2000 0.3000 0.1000  plane waves:    1646
 k-point  41 :   0.5000 0.4000 0.1000  plane waves:    1658
 k-point  42 :  -0.4000 0.4000 0.1000  plane waves:    1647
 k-point  43 :  -0.3000 0.4000 0.1000  plane waves:    1649
 k-point  44 :  -0.4000 0.5000 0.1000  plane waves:    1644
 k-point  45 :  -0.4000 0.4000 0.2000  plane waves:    1649
 k-point  46 :  -0.3000 0.4000 0.2000  plane waves:    1642
 k-point  47 :  -0.3000 0.5000 0.2000  plane waves:    1640

 maximum and minimum number of plane-waves per node :      1676     1636

 maximum number of plane-waves:      1676
 maximum index in each direction: 
   IXMAX=    8   IYMAX=    8   IZMAX=    8
   IXMIN=   -8   IYMIN=   -8   IZMIN=   -8


 serial   3D FFT for wavefunctions
 parallel 3D FFT for charge:
    minimum data exchange during FFTs selected (reduces bandwidth)


 total amount of memory used by VASP MPI-rank0    52852. kBytes
=======================================================================

   base      :      30000. kBytes
   nonlr-proj:       1161. kBytes
   fftplans  :       3408. kBytes
   grid      :      10637. kBytes
   one-center:         12. kBytes
   wavefun   :       7634. kBytes
 
     INWAV:  cpu time    0.0000: real time    0.0000
 Broyden mixing: mesh for mixing (old mesh)
   NGX = 17   NGY = 17   NGZ = 17
  (NGX  = 72   NGY  = 72   NGZ  = 72)
  gives a total of   4913 points

 initial charge density was supplied:
 charge density of overlapping atoms calculated
 number of electron       8.0000000 magnetization       1.2000000
 keeping initial charge density in first step


--------------------------------------------------------------------------------------------------------


 Maximum index for non-local projection operator         6603
 Maximum index for augmentation-charges         9303 (set IRDMAX)


--------------------------------------------------------------------------------------------------------


 First call to EWALD:  gamma=   0.514
 Maximum number of real-space cells 3x 3x 3
 Maximum number of reciprocal cells 3x 3x 3

    FEWALD:  cpu time    0.0011: real time    0.0016


--------------------------------------- Iteration      1(   1)  ---------------------------------------


    POTLOK:  cpu time    0.0865: real time    0.0898
    SETDIJ:  cpu time    0.1562: real time    0.1576
     EDDAV:  cpu time    3.3913: real time    3.5129
       DOS:  cpu time    0.0034: real time    0.0045
    --------------------------------------------
      LOOP:  cpu time    3.6375: real time    3.7649

 eigenvalue-minimisations  :  2256
 total energy-change (2. order) : 0.8556009E+01  (-0.3372818E+03)
 number of electron       8.0000000 magnetization       1.2000000
 augmentation part        8.0000000 magnetization       1.2000000

 Free energy of the ion-electron system (eV)
  ---------------------------------------------------
  alpha Z        PSCENC =         3.29317992
  Ewald energy   TEWEN  =      -226.94489173
  -Hartree energ DENC   =       -11.32339116
  -exchange      EXHF   =         0.00000000
  -V(xc)+E(xc)   XCENC  =       -18.60569953
  PAW double counting   =       176.18363791     -140.99252705
  entropy T*S    EENTRO =        -0.00092834
  eigenvalues    EBANDS =        20.81340687
  atomic energy  EATOM  =       206.13322186
  Solvation  Ediel_sol  =         0.00000000
  ---------------------------------------------------
  free energy    TOTEN  =         8.55600875 eV

  energy without entropy =        8.55693709  energy(sigma->0) =        8.55624083


--------------------------------------------------------------------------------------------------------




--------------------------------------- Iteration      1(   2)  ---------------------------------------


     EDDAV:  cpu time    4.2762: real time    4.4030
       DOS:  cpu time    0.0011: real time    0.0011
    --------------------------------------------
      LOOP:  cpu time    4.2774: real time    4.4041

 eigenvalue-minimisations  :  2896
 total energy-change (2. order) :-0.1872777E+02  (-0.1783244E+02)
 number of electron       8.0000000 magnetization       1.2000000
 augmentation part        8.0000000 magnetization       1.2000000

 Free energy of the ion-electron system (eV)
  ---------------------------------------------------
  alpha Z        PSCENC =         3.29317992
  Ewald energy   TEWEN  =      -226.94489173
  -Hartree energ DENC   =       -11.32339116
  -exchange      EXHF   =         0.00000000
  -V(xc)+E(xc)   XCENC  =       -18.60569953
  PAW double counting   =       176.18363791     -140.99252705
  entropy T*S    EENTRO =        -0.00012028
  eigenvalues    EBANDS =         2.08483304
  atomic energy  EATOM  =       206.13322186
  Solvation  Ediel_sol  =         0.00000000
  ---------------------------------------------------
  free energy    TOTEN  =       -10.17175703 eV

  energy without entropy =      -10.17163675  energy(sigma->0) =      -10.17172696


--------------------------------------------------------------------------------------------------------




--------------------------------------- Iteration      1(   3)  ---------------------------------------


     EDDAV:  cpu time    3.0770: real time    3.0918
       DOS:  cpu time    0.0012: real time    0.0012
    --------------------------------------------
      LOOP:  cpu time    3.0782: real time    3.0929

 eigenvalue-minimisations  :  2988
 total energy-change (2. order) :-0.6556326E+00  (-0.6507544E+00)
 number of electron       8.0000000 magnetization       1.2000000
 augmentation part        8.0000000 magnetization       1.2000000

 Free energy of the ion-electron system (eV)
  ---------------------------------------------------
  alpha Z        PSCENC =         3.29317992
  Ewald energy   TEWEN  =      -226.94489173
  -Hartree energ DENC   =       -11.32339116
  -exchange      EXHF   =         0.00000000
  -V(xc)+E(xc)   XCENC  =       -18.60569953
  PAW double counting   =       176.18363791     -140.99252705
  entropy T*S    EENTRO =         0.00025002
  eigenvalues    EBANDS =         1.42883014
  atomic energy  EATOM  =       206.13322186
  Solvation  Ediel_sol  =         0.00000000
  ---------------------------------------------------
  free energy    TOTEN  =       -10.82738962 eV

  energy without entropy =      -10.82763965  energy(sigma->0) =      -10.82745213


--------------------------------------------------------------------------------------------------------




--------------------------------------- Iteration      1(   4)  ---------------------------------------


     EDDAV:  cpu time    2.6260: real time    2.6347
       DOS:  cpu time    0.0017: real time    0.0017
    --------------------------------------------
      LOOP:  cpu time    2.6276: real time    2.6364

 eigenvalue-minimisations  :  2652
 total energy-change (2. order) :-0.5047571E-02  (-0.5046681E-02)
 number of electron       8.0000000 magnetization       1.2000000
 augmentation part        8.0000000 magnetization       1.2000000

 Free energy of the ion-electron system (eV)
  ---------------------------------------------------
  alpha Z        PSCENC =         3.29317992
  Ewald energy   TEWEN  =      -226.94489173
  -Hartree energ DENC   =       -11.32339116
  -exchange      EXHF   =         0.00000000
  -V(xc)+E(xc)   XCENC  =       -18.60569953
  PAW double counting   =       176.18363791     -140.99252705
  entropy T*S    EENTRO =         0.00024835
  eigenvalues    EBANDS =         1.42378424
  atomic energy  EATOM  =       206.13322186
  Solvation  Ediel_sol  =         0.00000000
  ---------------------------------------------------
  free energy    TOTEN  =       -10.83243719 eV

  energy without entropy =      -10.83268554  energy(sigma->0) =      -10.83249928


--------------------------------------------------------------------------------------------------------




--------------------------------------- Iteration      1(   5)  ---------------------------------------


     EDDAV:  cpu time    2.8037: real time    2.8090
       DOS:  cpu time    0.0013: real time    0.0013
    CHARGE:  cpu time    0.0940: real time    0.1024
    MIXING:  cpu time    0.0030: real time    0.0043
    --------------------------------------------
      LOOP:  cpu time    2.9020: real time    2.9170

 eigenvalue-minimisations  :  2984
 total energy-change (2. order) :-0.5203548E-04  (-0.5203558E-04)
 number of electron       8.0000000 magnetization      -0.3330335
 augmentation part       -0.4701091 magnetization      -0.3295419

 Broyden mixing:
  rms(total) = 0.52234E+00    rms(broyden)= 0.52234E+00
  rms(prec ) = 0.95584E+00
  weight for this iteration     100.00

 Free energy of the ion-electron system (eV)
  ---------------------------------------------------
  alpha Z        PSCENC =         3.29317992
  Ewald energy   TEWEN  =      -226.94489173
  -Hartree energ DENC   =       -11.32339116
  -exchange      EXHF   =         0.00000000
  -V(xc)+E(xc)   XCENC  =       -18.60569953
  PAW double counting   =       176.18363791     -140.99252705
  entropy T*S    EENTRO =         0.00024833
  eigenvalues    EBANDS =         1.42373223
  atomic energy  EATOM  =       206.13322186
  Solvation  Ediel_sol  =         0.00000000
  ---------------------------------------------------
  free energy    TOTEN  =       -10.83248923 eV

  energy without entropy =      -10.83273756  energy(sigma->0) =      -10.83255131


--------------------------------------------------------------------------------------------------------




--------------------------------------- Iteration      1(   6)  ---------------------------------------


    POTLOK:  cpu time    0.0890: real time    0.0890
    SETDIJ:  cpu time    0.1384: real time    0.1393
    EDDIAG:  cpu time    0.2685: real time    0.2753
  RMM-DIIS:  cpu time    1.5318: real time    1.5392
    ORTHCH:  cpu time    0.0140: real time    0.0140
       DOS:  cpu time    0.0012: real time    0.0012
    CHARGE:  cpu time    0.0912: real time    0.0919
    MIXING:  cpu time    0.0031: real time    0.0031
    --------------------------------------------
      LOOP:  cpu time    2.1371: real time    2.1528

 eigenvalue-minimisations  :  2256
 total energy-change (2. order) :-0.5802789E-01  (-0.5034494E-02)
 number of electron       8.0000000 magnetization       0.4342991
 augmentation part       -0.4638994 magnetization       0.4354296

 Broyden mixing:
  rms(total) = 0.30139E+00    rms(broyden)= 0.30139E+00
  rms(prec ) = 0.55903E+00
  weight for this iteration     100.00

 eigenvalues of (default mixing * dielectric matrix)
  average eigenvalue GAMMA=   0.9224
  0.9224

 Free energy of the ion-electron system (eV)
  ---------------------------------------------------
  alpha Z        PSCENC =         3.29317992
  Ewald energy   TEWEN  =      -226.94489173
  -Hartree energ DENC   =       -12.79013909
  -exchange      EXHF   =         0.00000000
  -V(xc)+E(xc)   XCENC  =       -18.44862116
  PAW double counting   =       369.81250922     -334.72695910
  entropy T*S    EENTRO =         0.00027762
  eigenvalues    EBANDS =         2.78090536
  atomic energy  EATOM  =       206.13322186
  Solvation  Ediel_sol  =         0.00000000
  ---------------------------------------------------
  free energy    TOTEN  =       -10.89051712 eV

  energy without entropy =      -10.89079474  energy(sigma->0) =      -10.89058653


--------------------------------------------------------------------------------------------------------




--------------------------------------- Iteration      1(   7)  ---------------------------------------


    POTLOK:  cpu time    0.0870: real time    0.0871
    SETDIJ:  cpu time    0.1402: real time    0.1406
    EDDIAG:  cpu time    0.2832: real time    0.2843
  RMM-DIIS:  cpu time    1.5831: real time    1.5870
    ORTHCH:  cpu time    0.0134: real time    0.0134
       DOS:  cpu time    0.0011: real time    0.0011
    CHARGE:  cpu time    0.0903: real time    0.0908
    MIXING:  cpu time    0.0028: real time    0.0028
    --------------------------------------------
      LOOP:  cpu time    2.2010: real time    2.2071

 eigenvalue-minimisations  :  2256
 total energy-change (2. order) : 0.5861364E-01  (-0.4927053E-02)
 number of electron       8.0000000 magnetization       0.0627151
 augmentation part       -0.4589453 magnetization       0.0633415

 Broyden mixing:
  rms(total) = 0.16297E+00    rms(broyden)= 0.16297E+00
  rms(prec ) = 0.20683E+00
  weight for this iteration     100.00

 eigenvalues of (default mixing * dielectric matrix)
  average eigenvalue GAMMA=   1.3356
  0.6974  1.9738

 Free energy of the ion-electron system (eV)
  ---------------------------------------------------
  alpha Z        PSCENC =         3.29317992
  Ewald energy   TEWEN  =      -226.94489173
  -Hartree energ DENC   =       -14.51264947
  -exchange      EXHF   =         0.00000000
  -V(xc)+E(xc)   XCENC  =       -18.16389345
  PAW double counting   =       688.73473984     -653.74107892
  entropy T*S    EENTRO =         0.00021804
  eigenvalues    EBANDS =         4.36925044
  atomic energy  EATOM  =       206.13322186
  Solvation  Ediel_sol  =         0.00000000
  ---------------------------------------------------
  free energy    TOTEN  =       -10.83190348 eV

  energy without entropy =      -10.83212152  energy(sigma->0) =      -10.83195799


--------------------------------------------------------------------------------------------------------




--------------------------------------- Iteration      1(   8)  ---------------------------------------


    POTLOK:  cpu time    0.0875: real time    0.0882
    SETDIJ:  cpu time    0.1438: real time    0.1446
    EDDIAG:  cpu time    0.3587: real time    0.3685
  RMM-DIIS:  cpu time    2.1833: real time    2.2622
    ORTHCH:  cpu time    0.0153: real time    0.0153
       DOS:  cpu time    0.0012: real time    0.0012
    CHARGE:  cpu time    0.0974: real time    0.0987
    MIXING:  cpu time    0.0027: real time    0.0027
    --------------------------------------------
      LOOP:  cpu time    2.8899: real time    2.9814

 eigenvalue-minimisations  :  2256
 total energy-change (2. order) :-0.1735580E-01  (-0.1206395E-02)
 number of electron       8.0000000 magnetization      -0.0062293
 augmentation part       -0.4574853 magnetization      -0.0062808

 Broyden mixing:
  rms(total) = 0.42024E-01    rms(broyden)= 0.42024E-01
  rms(prec ) = 0.50127E-01
  weight for this iteration     100.00

 eigenvalues of (default mixing * dielectric matrix)
  average eigenvalue GAMMA=   1.3053
  2.5177  0.7852  0.6132

 Free energy of the ion-electron system (eV)
  ---------------------------------------------------
  alpha Z        PSCENC =         3.29317992
  Ewald energy   TEWEN  =      -226.94489173
  -Hartree energ DENC   =       -15.13098516
  -exchange      EXHF   =         0.00000000
  -V(xc)+E(xc)   XCENC  =       -18.07534494
  PAW double counting   =       825.85038607     -790.88796796
  entropy T*S    EENTRO =         0.00050937
  eigenvalues    EBANDS =         4.91263331
  atomic energy  EATOM  =       206.13322186
  Solvation  Ediel_sol  =         0.00000000
  ---------------------------------------------------
  free energy    TOTEN  =       -10.84925928 eV

  energy without entropy =      -10.84976864  energy(sigma->0) =      -10.84938662


--------------------------------------------------------------------------------------------------------




--------------------------------------- Iteration      1(   9)  ---------------------------------------


    POTLOK:  cpu time    0.0889: real time    0.0897
    SETDIJ:  cpu time    0.1438: real time    0.1447
    EDDIAG:  cpu time    0.2953: real time    0.2967
  RMM-DIIS:  cpu time    1.9329: real time    1.9838
    ORTHCH:  cpu time    0.0210: real time    0.0212
       DOS:  cpu time    0.0013: real time    0.0013
    CHARGE:  cpu time    0.1100: real time    0.1112
    MIXING:  cpu time    0.0037: real time    0.0037
    --------------------------------------------
      LOOP:  cpu time    2.5968: real time    2.6523

 eigenvalue-minimisations  :  2256
 total energy-change (2. order) :-0.5442358E-03  (-0.8934029E-04)
 number of electron       8.0000000 magnetization      -0.0005320
 augmentation part       -0.4577723 magnetization      -0.0002778

 Broyden mixing:
  rms(total) = 0.10813E-01    rms(broyden)= 0.10813E-01
  rms(prec ) = 0.22184E-01
  weight for this iteration     100.00

 eigenvalues of (default mixing * dielectric matrix)
  average eigenvalue GAMMA=   1.2511
  2.4712  1.1071  0.7813  0.6446

 Free energy of the ion-electron system (eV)
  ---------------------------------------------------
  alpha Z        PSCENC =         3.29317992
  Ewald energy   TEWEN  =      -226.94489173
  -Hartree energ DENC   =       -15.16129242
  -exchange      EXHF   =         0.00000000
  -V(xc)+E(xc)   XCENC  =       -18.06786749
  PAW double counting   =       836.88159691     -801.91472243
  entropy T*S    EENTRO =         0.00052525
  eigenvalues    EBANDS =         4.93044663
  atomic energy  EATOM  =       206.13322186
  Solvation  Ediel_sol  =         0.00000000
  ---------------------------------------------------
  free energy    TOTEN  =       -10.84980351 eV

  energy without entropy =      -10.85032876  energy(sigma->0) =      -10.84993483


--------------------------------------------------------------------------------------------------------




--------------------------------------- Iteration      1(  10)  ---------------------------------------


    POTLOK:  cpu time    0.1409: real time    0.1482
    SETDIJ:  cpu time    0.1626: real time    0.1641
    EDDIAG:  cpu time    0.4190: real time    0.4252
  RMM-DIIS:  cpu time    2.9878: real time    4.1553
    ORTHCH:  cpu time    0.0572: real time    0.1024
       DOS:  cpu time    0.0018: real time    0.0018
    CHARGE:  cpu time    0.2167: real time    0.2931
    MIXING:  cpu time    0.0070: real time    0.0075
    --------------------------------------------
      LOOP:  cpu time    3.9930: real time    5.2977

 eigenvalue-minimisations  :  2256
 total energy-change (2. order) :-0.4185223E-03  (-0.3873136E-04)
 number of electron       8.0000000 magnetization       0.0008828
 augmentation part       -0.4581658 magnetization       0.0008442

 Broyden mixing:
  rms(total) = 0.53562E-02    rms(broyden)= 0.53562E-02
  rms(prec ) = 0.77695E-02
  weight for this iteration     100.00

 eigenvalues of (default mixing * dielectric matrix)
  average eigenvalue GAMMA=   1.3429
  2.3990  1.8254  1.0654  0.6413  0.7831

 Free energy of the ion-electron system (eV)
  ---------------------------------------------------
  alpha Z        PSCENC =         3.29317992
  Ewald energy   TEWEN  =      -226.94489173
  -Hartree energ DENC   =       -15.15004742
  -exchange      EXHF   =         0.00000000
  -V(xc)+E(xc)   XCENC  =       -18.06473983
  PAW double counting   =       837.66688574     -802.68730030
  entropy T*S    EENTRO =         0.00052653
  eigenvalues    EBANDS =         4.90294320
  atomic energy  EATOM  =       206.13322186
  Solvation  Ediel_sol  =         0.00000000
  ---------------------------------------------------
  free energy    TOTEN  =       -10.85022204 eV

  energy without entropy =      -10.85074857  energy(sigma->0) =      -10.85035367


--------------------------------------------------------------------------------------------------------




--------------------------------------- Iteration      1(  11)  ---------------------------------------


    POTLOK:  cpu time    0.1447: real time    0.1571
    SETDIJ:  cpu time    0.2125: real time    0.2229
    EDDIAG:  cpu time    0.8035: real time    0.8710
  RMM-DIIS:  cpu time    2.2366: real time    2.4876
    ORTHCH:  cpu time    0.0177: real time    0.0178
       DOS:  cpu time    0.0015: real time    0.0015
    CHARGE:  cpu time    0.0975: real time    0.0999
    MIXING:  cpu time    0.0035: real time    0.0038
    --------------------------------------------
      LOOP:  cpu time    3.5175: real time    3.8614

 eigenvalue-minimisations  :  2256
 total energy-change (2. order) :-0.7857676E-04  (-0.1193746E-04)
 number of electron       8.0000000 magnetization       0.0004905
 augmentation part       -0.4582430 magnetization       0.0005993

 Broyden mixing:
  rms(total) = 0.42320E-02    rms(broyden)= 0.42320E-02
  rms(prec ) = 0.47255E-02
  weight for this iteration     100.00

 eigenvalues of (default mixing * dielectric matrix)
  average eigenvalue GAMMA=   1.4024
  2.4760  2.4760  1.4394  0.7803  0.6213  0.6213

 Free energy of the ion-electron system (eV)
  ---------------------------------------------------
  alpha Z        PSCENC =         3.29317992
  Ewald energy   TEWEN  =      -226.94489173
  -Hartree energ DENC   =       -15.16523746
  -exchange      EXHF   =         0.00000000
  -V(xc)+E(xc)   XCENC  =       -18.06191053
  PAW double counting   =       836.02636408     -801.04519517
  entropy T*S    EENTRO =         0.00052682
  eigenvalues    EBANDS =         4.91364161
  atomic energy  EATOM  =       206.13322186
  Solvation  Ediel_sol  =         0.00000000
  ---------------------------------------------------
  free energy    TOTEN  =       -10.85030061 eV

  energy without entropy =      -10.85082743  energy(sigma->0) =      -10.85043232


--------------------------------------------------------------------------------------------------------




--------------------------------------- Iteration      1(  12)  ---------------------------------------


    POTLOK:  cpu time    0.1147: real time    0.1255
    SETDIJ:  cpu time    0.1605: real time    0.1661
    EDDIAG:  cpu time    0.4742: real time    0.4856
  RMM-DIIS:  cpu time    1.5480: real time    1.5583
    ORTHCH:  cpu time    0.0124: real time    0.0124
       DOS:  cpu time    0.0011: real time    0.0011
    --------------------------------------------
      LOOP:  cpu time    2.3109: real time    2.3490

 eigenvalue-minimisations  :  1980
 total energy-change (2. order) :-0.3855458E-05  (-0.1913958E-05)
 number of electron       8.0000000 magnetization       0.0004905
 augmentation part       -0.4582430 magnetization       0.0005993

 Free energy of the ion-electron system (eV)
  ---------------------------------------------------
  alpha Z        PSCENC =         3.29317992
  Ewald energy   TEWEN  =      -226.94489173
  -Hartree energ DENC   =       -15.16955356
  -exchange      EXHF   =         0.00000000
  -V(xc)+E(xc)   XCENC  =       -18.06151267
  PAW double counting   =       833.12411132     -798.14288765
  entropy T*S    EENTRO =         0.00052694
  eigenvalues    EBANDS =         4.91750110
  atomic energy  EATOM  =       206.13322186
  Solvation  Ediel_sol  =         0.00000000
  ---------------------------------------------------
  free energy    TOTEN  =       -10.85030447 eV

  energy without entropy =      -10.85083141  energy(sigma->0) =      -10.85043620


--------------------------------------------------------------------------------------------------------




 average (electrostatic) potential at core
  the test charge radii are     0.9892
  (the norm of the test charge is              1.0000)
       1 -83.4843       2 -83.4843
 
 
 
 E-fermi :   5.6242     XC(G=0):  -9.3284     alpha+bet :-11.7317

 Fermi energy:         5.6241690842

 spin component 1

 k-point     1 :       0.0000    0.0000    0.0000
  band No.  band energies     occupation 
      1      -6.1995      1.00000
      2       5.6158      0.54439
      3       5.6158      0.54439
      4       5.6158      0.54438
      5       8.1722      0.00000
      6       8.1722      0.00000
      7       8.1722      0.00000
      8       8.7483      0.00000
      9      13.3248      0.00000
     10      13.3248      0.00000
     11      13.4907      0.00000
     12      16.7968      0.00000

 k-point     2 :       0.1000    0.0000    0.0000
  band No.  band energies     occupation 
      1      -6.0709      1.00000
      2       4.4735      1.00000
      3       5.4220      1.05075
      4       5.4220      1.05075
      5       8.1379      0.00000
      6       8.4580      0.00000
      7       8.4580      0.00000
      8       9.7188      0.00000
      9      12.9749      0.00000
     10      12.9749      0.00000
     11      14.0206      0.00000
     12      16.3776      0.00000

 k-point     3 :       0.2000    0.0000    0.0000
  band No.  band energies     occupation 
      1      -5.6915      1.00000
      2       2.6335      1.00000
      3       5.0482      0.99949
      4       5.0482      0.99949
      5       7.7674      0.00000
      6       8.9599      0.00000
      7       8.9599      0.00000
      8      11.4934      0.00000
      9      12.6640      0.00000
     10      12.6640      0.00000
     11      14.6897      0.00000
     12      16.4717      0.00000

 k-point     4 :       0.3000   -0.0000    0.0000
  band No.  band energies     occupation 
      1      -5.0881      1.00000
      2       0.8754      1.00000
      3       4.7181      1.00000
      4       4.7181      1.00000
      5       7.4037      0.00000
      6       9.1404      0.00000
      7       9.1404      0.00000
      8      13.1151      0.00000
      9      13.1897      0.00000
     10      13.1897      0.00000
     11      14.4366      0.00000
     12      18.3837      0.00000

 k-point     5 :       0.4000    0.0000    0.0000
  band No.  band energies     occupation 
      1      -4.3583      1.00000
      2      -0.5729      1.00000
      3       4.5082      1.00000
      4       4.5082      1.00000
      5       7.1637      0.00000
      6       9.0359      0.00000
      7       9.0359      0.00000
      8      13.4190      0.00000
      9      14.5520      0.00000
     10      14.5520      0.00000
     11      15.5275      0.00000
     12      18.6869      0.00000

 k-point     6 :       0.5000    0.0000    0.0000
  band No.  band energies     occupation 
      1      -3.9207      1.00000
      2      -1.2534      1.00000
      3       4.4373      1.00000
      4       4.4373      1.00000
      5       7.0814      0.00000
      6       8.9647      0.00000
      7       8.9647      0.00000
      8      13.3160      0.00000
      9      16.1108      0.00000
     10      16.1108      0.00000
     11      16.7964      0.00000
     12      16.8351      0.00000

 k-point     7 :       0.1000    0.1000    0.0000
  band No.  band energies     occupation 
      1      -6.0277      1.00000
      2       4.6599      1.00000
      3       5.0542      0.99942
      4       5.0542      0.99942
      5       7.8003      0.00000
      6       8.9447      0.00000
      7       8.9447      0.00000
      8       9.6032      0.00000
      9      12.3520      0.00000
     10      13.5157      0.00000
     11      14.2025      0.00000
     12      17.1000      0.00000

 k-point     8 :       0.2000    0.1000    0.0000
  band No.  band energies     occupation 
      1      -5.7307      1.00000
      2       3.1740      1.00000
      3       4.6277      1.00000
      4       4.7856      1.00000
      5       7.8545      0.00000
      6       8.9536      0.00000
      7       9.5884      0.00000
      8      10.5278      0.00000
      9      12.3078      0.00000
     10      13.5054      0.00000
     11      15.0982      0.00000
     12      16.7073      0.00000

 k-point     9 :       0.3000    0.1000    0.0000
  band No.  band energies     occupation 
      1      -5.1974      1.00000
      2       1.4432      1.00000
      3       4.3134      1.00000
      4       4.3577      1.00000
      5       7.9624      0.00000
      6       8.9569      0.00000
      7       9.8753      0.00000
      8      10.9169      0.00000
      9      13.7377      0.00000
     10      13.8848      0.00000
     11      15.1049      0.00000
     12      17.8377      0.00000

 k-point    10 :       0.4000    0.1000    0.0000
  band No.  band energies     occupation 
      1      -4.4889      1.00000
      2      -0.1010      1.00000
      3       3.9526      1.00000
      4       4.1670      1.00000
      5       7.8055      0.00000
      6       8.9450      0.00000
      7       9.7116      0.00000
      8      11.9617      0.00000
      9      14.5209      0.00000
     10      15.0956      0.00000
     11      15.6914      0.00000
     12      18.4255      0.00000

 k-point    11 :       0.5000    0.1000    0.0000
  band No.  band energies     occupation 
      1      -3.8659      1.00000
      2      -1.1140      1.00000
      3       3.6680      1.00000
      4       4.1977      1.00000
      5       7.7120      0.00000
      6       8.9257      0.00000
      7       9.4547      0.00000
      8      13.3546      0.00000
      9      14.4695      0.00000
     10      16.0485      0.00000
     11      16.9318      0.00000
     12      17.0541      0.00000

 k-point    12 :      -0.4000    0.1000    0.0000
  band No.  band energies     occupation 
      1      -4.0279      1.00000
      2      -0.8717      1.00000
      3       3.5441      1.00000
      4       4.3925      1.00000
      5       7.7668      0.00000
      6       9.0599      0.00000
      7       9.3018      0.00000
      8      13.6059      0.00000
      9      14.1722      0.00000
     10      14.8298      0.00000
     11      16.6505      0.00000
     12      17.6696      0.00000

 k-point    13 :      -0.3000    0.1000    0.0000
  band No.  band energies     occupation 
      1      -4.7387      1.00000
      2       0.3834      1.00000
      3       3.6063      1.00000
      4       4.7204      1.00000
      5       7.9662      0.00000
      6       9.2247      0.00000
      7       9.3034      0.00000
      8      12.5455      0.00000
      9      12.6682      0.00000
     10      14.9033      0.00000
     11      15.8046      0.00000
     12      18.2416      0.00000

 k-point    14 :      -0.2000    0.1000    0.0000
  band No.  band energies     occupation 
      1      -5.4009      1.00000
      2       2.0029      1.00000
      3       3.8816      1.00000
      4       5.1189      0.99809
      5       8.2737      0.00000
      6       8.9719      0.00000
      7       9.2988      0.00000
      8      11.4853      0.00000
      9      11.9752      0.00000
     10      14.1454      0.00000
     11      15.3085      0.00000
     12      17.1325      0.00000

 k-point    15 :      -0.1000    0.1000    0.0000
  band No.  band energies     occupation 
      1      -5.8582      1.00000
      2       3.5886      1.00000
      3       4.4846      1.00000
      4       5.4404      1.05106
      5       8.5261      0.00000
      6       8.5267      0.00000
      7       8.7048      0.00000
      8      10.6645      0.00000
      9      12.2319      0.00000
     10      13.2301      0.00000
     11      14.7588      0.00000
     12      16.6421      0.00000

 k-point    16 :       0.2000    0.2000    0.0000
  band No.  band energies     occupation 
      1      -5.5164      1.00000
      2       2.9808      1.00000
      3       4.1613      1.00000
      4       4.1613      1.00000
      5       7.0912      0.00000
      6       9.4679      0.00000
      7      10.4566      0.00000
      8      10.4566      0.00000
      9      12.5539      0.00000
     10      14.0878      0.00000
     11      15.8982      0.00000
     12      17.9623      0.00000

 k-point    17 :       0.3000    0.2000    0.0000
  band No.  band energies     occupation 
      1      -5.0592      1.00000
      2       1.7584      1.00000
      3       3.6588      1.00000
      4       3.8190      1.00000
      5       7.1871      0.00000
      6       9.0596      0.00000
      7      10.7065      0.00000
      8      11.0448      0.00000
      9      14.0197      0.00000
     10      14.5486      0.00000
     11      16.6042      0.00000
     12      18.0844      0.00000

 k-point    18 :       0.4000    0.2000    0.0000
  band No.  band energies     occupation 
      1      -4.3974      1.00000
      2       0.3519      1.00000
      3       3.0387      1.00000
      4       3.6612      1.00000
      5       7.4018      0.00000
      6       9.6846      0.00000
      7      10.4757      0.00000
      8      11.0114      0.00000
      9      15.6670      0.00000
     10      15.9039      0.00000
     11      16.2401      0.00000
     12      18.2940      0.00000

 k-point    19 :       0.5000    0.2000    0.0000
  band No.  band energies     occupation 
      1      -3.6843      1.00000
      2      -0.8045      1.00000
      3       2.5372      1.00000
      4       3.7032      1.00000
      5       7.4655      0.00000
      6      10.2567      0.00000
      7      10.6940      0.00000
      8      11.2105      0.00000
      9      15.3041      0.00000
     10      16.0300      0.00000
     11      17.4768      0.00000
     12      17.5943      0.00000

 k-point    20 :      -0.4000    0.2000    0.0000
  band No.  band energies     occupation 
      1      -3.5365      1.00000
      2      -1.0064      1.00000
      3       2.2460      1.00000
      4       3.9359      1.00000
      5       7.6733      0.00000
      6      10.1618      0.00000
      7      10.3958      0.00000
      8      13.1097      0.00000
      9      13.8846      0.00000
     10      14.0095      0.00000
     11      17.1301      0.00000
     12      19.5495      0.00000

 k-point    21 :      -0.3000    0.2000    0.0000
  band No.  band energies     occupation 
      1      -4.1731      1.00000
      2      -0.0445      1.00000
      3       2.2314      1.00000
      4       4.3246      1.00000
      5       8.0554      0.00000
      6      10.1198      0.00000
      7      10.1767      0.00000
      8      12.2325      0.00000
      9      12.4278      0.00000
     10      15.0673      0.00000
     11      17.4359      0.00000
     12      18.4609      0.00000

 k-point    22 :      -0.2000    0.2000    0.0000
  band No.  band energies     occupation 
      1      -4.8759      1.00000
      2       1.1689      1.00000
      3       2.6821      1.00000
      4       4.7847      1.00000
      5       8.4659      0.00000
      6       9.5810      0.00000
      7       9.8846      0.00000
      8      11.2717      0.00000
      9      11.7468      0.00000
     10      16.2170      0.00000
     11      16.2391      0.00000
     12      17.4439      0.00000

 k-point    23 :       0.3000    0.3000    0.0000
  band No.  band energies     occupation 
      1      -4.6780      1.00000
      2       1.2113      1.00000
      3       3.4334      1.00000
      4       3.4334      1.00000
      5       6.5042      0.00000
      6       8.0510      0.00000
      7      12.1867      0.00000
      8      12.1867      0.00000
      9      14.5226      0.00000
     10      15.0389      0.00000
     11      17.9322      0.00000
     12      18.9811      0.00000

 k-point    24 :       0.4000    0.3000    0.0000
  band No.  band energies     occupation 
      1      -4.0768      1.00000
      2       0.2227      1.00000
      3       2.8220      1.00000
      4       3.2318      1.00000
      5       6.6917      0.00000
      6       7.8804      0.00000
      7      12.4705      0.00000
      8      12.6112      0.00000
      9      16.0248      0.00000
     10      16.1564      0.00000
     11      17.6362      0.00000
     12      18.3015      0.00000

 k-point    25 :       0.5000    0.3000    0.0000
  band No.  band energies     occupation 
      1      -3.3429      1.00000
      2      -0.7629      1.00000
      3       2.0121      1.00000
      4       3.2377      1.00000
      5       6.8729      0.00000
      6       8.9912      0.00000
      7      12.2847      0.00000
      8      12.3730      0.00000
      9      15.9660      0.00000
     10      16.1598      0.00000
     11      17.7909      0.00000
     12      18.2665      0.00000

 k-point    26 :      -0.4000    0.3000    0.0000
  band No.  band energies     occupation 
      1      -2.9369      1.00000
      2      -1.2249      1.00000
      3       1.4714      1.00000
      4       3.4485      1.00000
      5       7.1009      0.00000
      6      10.7760      0.00000
      7      11.9776      0.00000
      8      12.1244      0.00000
      9      14.0193      0.00000
     10      14.0949      0.00000
     11      19.2227      0.00000
     12      19.9250      0.00000

 k-point    27 :      -0.3000    0.3000    0.0000
  band No.  band energies     occupation 
      1      -3.4625      1.00000
      2      -0.6472      1.00000
      3       1.4469      1.00000
      4       3.8365      1.00000
      5       7.5333      0.00000
      6      11.3094      0.00000
      7      11.6201      0.00000
      8      12.3419      0.00000
      9      12.7041      0.00000
     10      13.0787      0.00000
     11      19.1354      0.00000
     12      19.7190      0.00000

 k-point    28 :       0.4000    0.4000    0.0000
  band No.  band energies     occupation 
      1      -3.5363      1.00000
      2      -0.5217      1.00000
      3       2.9764      1.00000
      4       2.9764      1.00000
      5       6.2325      0.00025
      6       6.9641      0.00000
      7      14.0159      0.00000
      8      14.0159      0.00000
      9      16.3649      0.00000
     10      16.6059      0.00000
     11      18.0779      0.00000
     12      18.0779      0.00000

 k-point    29 :       0.5000    0.4000    0.0000
  band No.  band energies     occupation 
      1      -2.8217      1.00000
      2      -1.3479      1.00000
      3       2.4073      1.00000
      4       2.9284      1.00000
      5       6.4683      0.00000
      6       7.2137      0.00000
      7      14.2652      0.00000
      8      14.3420      0.00000
      9      16.3058      0.00000
     10      16.3966      0.00000
     11      17.8187      0.00000
     12      18.2352      0.00000

 k-point    30 :      -0.4000    0.4000    0.0000
  band No.  band energies     occupation 
      1      -2.3610      1.00000
      2      -1.7578      1.00000
      3       1.6462      1.00000
      4       3.0923      1.00000
      5       6.6784      0.00000
      6       8.7637      0.00000
      7      13.6122      0.00000
      8      14.1871      0.00000
      9      14.1879      0.00000
     10      14.6428      0.00000
     11      19.7167      0.00000
     12      19.8975      0.00000

 k-point    31 :       0.5000    0.5000    0.0000
  band No.  band energies     occupation 
      1      -2.1309      1.00000
      2      -2.1309      1.00000
      3       2.8215      1.00000
      4       2.8215      1.00000
      5       6.3662      0.00001
      6       6.3662      0.00001
      7      15.5518      0.00000
      8      15.5518      0.00000
      9      16.5227      0.00000
     10      16.5229      0.00000
     11      18.0839      0.00000
     12      18.1838      0.00000

 k-point    32 :       0.3000    0.2000    0.1000
  band No.  band energies     occupation 
      1      -5.3543      1.00000
      2       2.2539      1.00000
      3       3.5827      1.00000
      4       4.6603      1.00000
      5       7.9601      0.00000
      6       9.2642      0.00000
      7      10.2132      0.00000
      8      10.2343      0.00000
      9      12.7721      0.00000
     10      14.3531      0.00000
     11      16.0241      0.00000
     12      17.1797      0.00000

 k-point    33 :       0.4000    0.2000    0.1000
  band No.  band energies     occupation 
      1      -4.7548      1.00000
      2       0.8714      1.00000
      3       2.9989      1.00000
      4       4.2947      1.00000
      5       8.3000      0.00000
      6       9.1821      0.00000
      7      10.3067      0.00000
      8      10.6997      0.00000
      9      13.4285      0.00000
     10      15.9404      0.00000
     11      16.1594      0.00000
     12      17.9563      0.00000

 k-point    34 :       0.5000    0.2000    0.1000
  band No.  band energies     occupation 
      1      -4.0248      1.00000
      2      -0.4616      1.00000
      3       2.7651      1.00000
      4       3.9538      1.00000
      5       8.3383      0.00000
      6       8.8927      0.00000
      7      10.6266      0.00000
      8      11.6277      0.00000
      9      14.7269      0.00000
     10      15.0922      0.00000
     11      16.9618      0.00000
     12      18.1175      0.00000

 k-point    35 :      -0.4000    0.2000    0.1000
  band No.  band energies     occupation 
      1      -3.5794      1.00000
      2      -1.1212      1.00000
      3       2.7038      1.00000
      4       3.8199      1.00000
      5       8.3509      0.00000
      6       8.7292      0.00000
      7      10.5898      0.00000
      8      13.3459      0.00000
      9      13.3890      0.00000
     10      15.6898      0.00000
     11      17.0481      0.00000
     12      17.5194      0.00000

 k-point    36 :       0.4000    0.3000    0.1000
  band No.  band energies     occupation 
      1      -4.5316      1.00000
      2       0.8653      1.00000
      3       2.8698      1.00000
      4       3.5747      1.00000
      5       7.4016      0.00000
      6       8.6813      0.00000
      7      10.7558      0.00000
      8      12.0794      0.00000
      9      14.4305      0.00000
     10      16.2194      0.00000
     11      17.0591      0.00000
     12      18.3503      0.00000

 k-point    37 :       0.5000    0.3000    0.1000
  band No.  band energies     occupation 
      1      -3.8264      1.00000
      2      -0.2149      1.00000
      3       2.2611      1.00000
      4       3.2554      1.00000
      5       7.7821      0.00000
      6       9.3677      0.00000
      7      10.3817      0.00000
      8      12.4708      0.00000
      9      15.5033      0.00000
     10      15.5335      0.00000
     11      18.0121      0.00000
     12      18.3502      0.00000

 k-point    38 :      -0.4000    0.3000    0.1000
  band No.  band energies     occupation 
      1      -3.1935      1.00000
      2      -1.0549      1.00000
      3       1.8588      1.00000
      4       3.2012      1.00000
      5       7.9619      0.00000
      6       9.9545      0.00000
      7      11.0776      0.00000
      8      12.3989      0.00000
      9      13.4803      0.00000
     10      16.3744      0.00000
     11      17.4575      0.00000
     12      18.5741      0.00000

 k-point    39 :      -0.3000    0.3000    0.1000
  band No.  band energies     occupation 
      1      -3.3898      1.00000
      2      -0.8025      1.00000
      3       1.7142      1.00000
      4       3.4350      1.00000
      5       8.2954      0.00000
      6       9.7001      0.00000
      7      11.5069      0.00000
      8      12.2840      0.00000
      9      13.1425      0.00000
     10      14.6906      0.00000
     11      18.2958      0.00000
     12      19.5416      0.00000

 k-point    40 :      -0.2000    0.3000    0.1000
  band No.  band energies     occupation 
      1      -4.1081      1.00000
      2       0.1265      1.00000
      3       2.0123      1.00000
      4       3.8642      1.00000
      5       8.7744      0.00000
      6       9.2530      0.00000
      7      10.2998      0.00000
      8      11.8079      0.00000
      9      13.4887      0.00000
     10      15.2377      0.00000
     11      18.2851      0.00000
     12      18.6356      0.00000

 k-point    41 :       0.5000    0.4000    0.1000
  band No.  band energies     occupation 
      1      -3.4214      1.00000
      2      -0.6070      1.00000
      3       2.4672      1.00000
      4       2.7883      1.00000
      5       7.1180      0.00000
      6       7.7112      0.00000
      7      12.2887      0.00000
      8      14.0021      0.00000
      9      15.9486      0.00000
     10      16.2604      0.00000
     11      18.0282      0.00000
     12      18.5240      0.00000

 k-point    42 :      -0.4000    0.4000    0.1000
  band No.  band energies     occupation 
      1      -2.7000      1.00000
      2      -1.3677      1.00000
      3       1.7852      1.00000
      4       2.6992      1.00000
      5       7.4682      0.00000
      6       8.8929      0.00000
      7      11.8944      0.00000
      8      13.6502      0.00000
      9      14.4405      0.00000
     10      16.5075      0.00000
     11      17.8323      0.00000
     12      19.8735      0.00000

 k-point    43 :      -0.3000    0.4000    0.1000
  band No.  band energies     occupation 
      1      -2.7093      1.00000
      2      -1.3382      1.00000
      3       1.3800      1.00000
      4       2.9627      1.00000
      5       7.7896      0.00000
      6      10.7105      0.00000
      7      11.4925      0.00000
      8      11.8309      0.00000
      9      13.9205      0.00000
     10      15.0072      0.00000
     11      19.3158      0.00000
     12      20.4334      0.00000

 k-point    44 :      -0.4000    0.5000    0.1000
  band No.  band energies     occupation 
      1      -2.0806      1.00000
      2      -2.0806      1.00000
      3       2.4263      1.00000
      4       2.4263      1.00000
      5       7.2010      0.00000
      6       7.2010      0.00000
      7      14.0020      0.00000
      8      14.0020      0.00000
      9      16.0835      0.00000
     10      16.0835      0.00000
     11      18.2945      0.00000
     12      18.2945      0.00000

 k-point    45 :      -0.4000    0.4000    0.2000
  band No.  band energies     occupation 
      1      -3.1099      1.00000
      2      -0.8990      1.00000
      3       1.7264      1.00000
      4       2.6935      1.00000
      5       8.9976      0.00000
      6       9.3946      0.00000
      7       9.9867      0.00000
      8      13.3183      0.00000
      9      13.9723      0.00000
     10      15.6958      0.00000
     11      18.7513      0.00000
     12      19.9163      0.00000

 k-point    46 :      -0.3000    0.4000    0.2000
  band No.  band energies     occupation 
      1      -2.6114      1.00000
      2      -1.3983      1.00000
      3       1.5731      1.00000
      4       2.4486      1.00000
      5       9.2909      0.00000
      6       9.5674      0.00000
      7      10.9771      0.00000
      8      11.3834      0.00000
      9      14.4122      0.00000
     10      16.6645      0.00000
     11      17.6991      0.00000
     12      19.8888      0.00000

 k-point    47 :      -0.3000    0.5000    0.2000
  band No.  band energies     occupation 
      1      -1.9923      1.00000
      2      -1.9923      1.00000
      3       1.9292      1.00000
      4       1.9292      1.00000
      5       9.0405      0.00000
      6       9.0405      0.00000
      7      11.4770      0.00000
      8      11.4770      0.00000
      9      16.0657      0.00000
     10      16.0657      0.00000
     11      18.4558      0.00000
     12      18.4558      0.00000
 Fermi energy:         5.6241690842

 spin component 2

[...]
  band No.  band energies     occupation 
      1      -3.4621      1.00000
      2      -0.6469      1.00000
      3       1.4475      1.00000
      4       3.8369      1.00000
      5       7.5341      0.00000
      6      11.3107      0.00000
      7      11.6193      0.00000
      8      12.3424      0.00000
      9      12.7049      0.00000
     10      13.0795      0.00000
     11      19.1351      0.00000
     12      19.7191      0.00000

 k-point    28 :       0.4000    0.4000    0.0000
  band No.  band energies     occupation 
      1      -3.5360      1.00000
      2      -0.5215      1.00000
      3       2.9770      1.00000
      4       2.9770      1.00000
      5       6.2330      0.00024
      6       6.9647      0.00000
      7      14.0166      0.00000
      8      14.0166      0.00000
      9      16.3660      0.00000
     10      16.6058      0.00000
     11      18.0783      0.00000
     12      18.0809      0.00000

 k-point    29 :       0.5000    0.4000    0.0000
  band No.  band energies     occupation 
      1      -2.8213      1.00000
      2      -1.3476      1.00000
      3       2.4079      1.00000
      4       2.9290      1.00000
      5       6.4688      0.00000
      6       7.2142      0.00000
      7      14.2661      0.00000
      8      14.3425      0.00000
      9      16.3060      0.00000
     10      16.3971      0.00000
     11      17.8198      0.00000
     12      18.2380      0.00000

 k-point    30 :      -0.4000    0.4000    0.0000
  band No.  band energies     occupation 
      1      -2.3606      1.00000
      2      -1.7574      1.00000
      3       1.6468      1.00000
      4       3.0928      1.00000
      5       6.6790      0.00000
      6       8.7642      0.00000
      7      13.6134      0.00000
      8      14.1869      0.00000
      9      14.1887      0.00000
     10      14.6433      0.00000
     11      19.7107      0.00000
     12      19.8718      0.00000

 k-point    31 :       0.5000    0.5000    0.0000
  band No.  band energies     occupation 
      1      -2.1305      1.00000
      2      -2.1305      1.00000
      3       2.8221      1.00000
      4       2.8221      1.00000
      5       6.3668      0.00001
      6       6.3668      0.00001
      7      15.5529      0.00000
      8      15.5529      0.00000
      9      16.5226      0.00000
     10      16.5226      0.00000
     11      18.0691      0.00000
     12      18.1207      0.00000

 k-point    32 :       0.3000    0.2000    0.1000
  band No.  band energies     occupation 
      1      -5.3539      1.00000
      2       2.2541      1.00000
      3       3.5831      1.00000
      4       4.6605      1.00000
      5       7.9608      0.00000
      6       9.2652      0.00000
      7      10.2139      0.00000
      8      10.2349      0.00000
      9      12.7729      0.00000
     10      14.3539      0.00000
     11      16.0231      0.00000
     12      17.1794      0.00000

 k-point    33 :       0.4000    0.2000    0.1000
  band No.  band energies     occupation 
      1      -4.7543      1.00000
      2       0.8717      1.00000
      3       2.9994      1.00000
      4       4.2949      1.00000
      5       8.3007      0.00000
      6       9.1830      0.00000
      7      10.3074      0.00000
      8      10.7003      0.00000
      9      13.4293      0.00000
     10      15.9399      0.00000
     11      16.1600      0.00000
     12      17.9558      0.00000

 k-point    34 :       0.5000    0.2000    0.1000
  band No.  band energies     occupation 
      1      -4.0244      1.00000
      2      -0.4612      1.00000
      3       2.7655      1.00000
      4       3.9542      1.00000
      5       8.3390      0.00000
      6       8.8935      0.00000
      7      10.6275      0.00000
      8      11.6281      0.00000
      9      14.7274      0.00000
     10      15.0921      0.00000
     11      16.9619      0.00000
     12      18.1179      0.00000

 k-point    35 :      -0.4000    0.2000    0.1000
  band No.  band energies     occupation 
      1      -3.5790      1.00000
      2      -1.1208      1.00000
      3       2.7042      1.00000
      4       3.8203      1.00000
      5       8.3516      0.00000
      6       8.7299      0.00000
      7      10.5907      0.00000
      8      13.3459      0.00000
      9      13.3896      0.00000
     10      15.6900      0.00000
     11      17.0484      0.00000
     12      17.5198      0.00000

 k-point    36 :       0.4000    0.3000    0.1000
  band No.  band energies     occupation 
      1      -4.5312      1.00000
      2       0.8656      1.00000
      3       2.8703      1.00000
      4       3.5752      1.00000
      5       7.4022      0.00000
      6       8.6820      0.00000
      7      10.7565      0.00000
      8      12.0800      0.00000
      9      14.4313      0.00000
     10      16.2200      0.00000
     11      17.0587      0.00000
     12      18.3499      0.00000

 k-point    37 :       0.5000    0.3000    0.1000
  band No.  band energies     occupation 
      1      -3.8260      1.00000
      2      -0.2146      1.00000
      3       2.2616      1.00000
      4       3.2559      1.00000
      5       7.7826      0.00000
      6       9.3682      0.00000
      7      10.3825      0.00000
      8      12.4714      0.00000
      9      15.5041      0.00000
     10      15.5337      0.00000
     11      18.0116      0.00000
     12      18.3503      0.00000

 k-point    38 :      -0.4000    0.3000    0.1000
  band No.  band energies     occupation 
      1      -3.1931      1.00000
      2      -1.0546      1.00000
      3       1.8594      1.00000
      4       3.2017      1.00000
      5       7.9625      0.00000
      6       9.9550      0.00000
      7      11.0782      0.00000
      8      12.3996      0.00000
      9      13.4808      0.00000
     10      16.3748      0.00000
     11      17.4580      0.00000
     12      18.5738      0.00000

 k-point    39 :      -0.3000    0.3000    0.1000
  band No.  band energies     occupation 
      1      -3.3894      1.00000
      2      -0.8021      1.00000
      3       1.7148      1.00000
      4       3.4354      1.00000
      5       8.2961      0.00000
      6       9.7006      0.00000
      7      11.5075      0.00000
      8      12.2843      0.00000
      9      13.1432      0.00000
     10      14.6912      0.00000
     11      18.2955      0.00000
     12      19.5421      0.00000

 k-point    40 :      -0.2000    0.3000    0.1000
  band No.  band energies     occupation 
      1      -4.1077      1.00000
      2       0.1268      1.00000
      3       2.0128      1.00000
      4       3.8645      1.00000
      5       8.7752      0.00000
      6       9.2536      0.00000
      7      10.3005      0.00000
      8      11.8082      0.00000
      9      13.4895      0.00000
     10      15.2380      0.00000
     11      18.2910      0.00000
     12      18.6396      0.00000

 k-point    41 :       0.5000    0.4000    0.1000
  band No.  band energies     occupation 
      1      -3.4210      1.00000
      2      -0.6067      1.00000
      3       2.4677      1.00000
      4       2.7889      1.00000
      5       7.1186      0.00000
      6       7.7118      0.00000
      7      12.2894      0.00000
      8      14.0027      0.00000
      9      15.9489      0.00000
     10      16.2611      0.00000
     11      18.0291      0.00000
     12      18.5255      0.00000

 k-point    42 :      -0.4000    0.4000    0.1000
  band No.  band energies     occupation 
      1      -2.6997      1.00000
      2      -1.3674      1.00000
      3       1.7859      1.00000
      4       2.6998      1.00000
      5       7.4688      0.00000
      6       8.8933      0.00000
      7      11.8951      0.00000
      8      13.6510      0.00000
      9      14.4407      0.00000
     10      16.5080      0.00000
     11      17.8329      0.00000
     12      19.8740      0.00000

 k-point    43 :      -0.3000    0.4000    0.1000
  band No.  band energies     occupation 
      1      -2.7089      1.00000
      2      -1.3379      1.00000
      3       1.3806      1.00000
      4       2.9632      1.00000
      5       7.7902      0.00000
      6      10.7104      0.00000
      7      11.4936      0.00000
      8      11.8315      0.00000
      9      13.9208      0.00000
     10      15.0079      0.00000
     11      19.3164      0.00000
     12      20.4318      0.00000

 k-point    44 :      -0.4000    0.5000    0.1000
  band No.  band energies     occupation 
      1      -2.0803      1.00000
      2      -2.0802      1.00000
      3       2.4268      1.00000
      4       2.4268      1.00000
      5       7.2015      0.00000
      6       7.2015      0.00000
      7      14.0027      0.00000
      8      14.0027      0.00000
      9      16.0838      0.00000
     10      16.0838      0.00000
     11      18.2953      0.00000
     12      18.2954      0.00000

 k-point    45 :      -0.4000    0.4000    0.2000
  band No.  band energies     occupation 
      1      -3.1095      1.00000
      2      -0.8987      1.00000
      3       1.7270      1.00000
      4       2.6941      1.00000
      5       8.9980      0.00000
      6       9.3948      0.00000
      7       9.9877      0.00000
      8      13.3189      0.00000
      9      13.9727      0.00000
     10      15.6965      0.00000
     11      18.7524      0.00000
     12      19.9599      0.00000

 k-point    46 :      -0.3000    0.4000    0.2000
  band No.  band energies     occupation 
      1      -2.6111      1.00000
      2      -1.3980      1.00000
      3       1.5737      1.00000
      4       2.4492      1.00000
      5       9.2910      0.00000
      6       9.5681      0.00000
      7      10.9774      0.00000
      8      11.3844      0.00000
      9      14.4126      0.00000
     10      16.6651      0.00000
     11      17.6996      0.00000
     12      19.8849      0.00000

 k-point    47 :      -0.3000    0.5000    0.2000
  band No.  band energies     occupation 
      1      -1.9920      1.00000
      2      -1.9920      1.00000
      3       1.9298      1.00000
      4       1.9298      1.00000
      5       9.0408      0.00000
      6       9.0408      0.00000
      7      11.4778      0.00000
      8      11.4778      0.00000
      9      16.0661      0.00000
     10      16.0661      0.00000
     11      18.4565      0.00000
     12      18.4565      0.00000


--------------------------------------------------------------------------------------------------------


 soft charge-density along one line, spin component           1
         0         1         2         3         4         5         6         7         8         9
 total charge-density along one line
 
 soft charge-density along one line, spin component           2
         0         1         2         3         4         5         6         7         8         9
 total charge-density along one line
 
 pseudopotential strength for first ion, spin component:           1
 18.437  25.723  -0.000  -0.000   0.000  -0.000  -0.000   0.000
 25.723  35.893  -0.000  -0.000   0.000  -0.000  -0.000   0.000
 -0.000  -0.000   4.181   0.000  -0.000   7.790   0.000  -0.000
 -0.000  -0.000   0.000   4.181   0.000   0.000   7.790   0.000
  0.000   0.000  -0.000   0.000   4.181  -0.000   0.000   7.790
 -0.000  -0.000   7.790   0.000  -0.000  14.528   0.000  -0.000
 -0.000  -0.000   0.000   7.790   0.000   0.000  14.528   0.000
  0.000   0.000  -0.000   0.000   7.790  -0.000   0.000  14.528
 pseudopotential strength for first ion, spin component:           2
 18.438  25.724  -0.000  -0.000   0.000  -0.000  -0.000   0.000
 25.724  35.894  -0.000  -0.000   0.000  -0.000  -0.000   0.000
 -0.000  -0.000   4.181   0.000   0.000   7.791   0.000   0.000
 -0.000  -0.000   0.000   4.181   0.000   0.000   7.791   0.000
  0.000   0.000   0.000   0.000   4.181   0.000   0.000   7.791
 -0.000  -0.000   7.791   0.000   0.000  14.529   0.000   0.000
 -0.000  -0.000   0.000   7.791   0.000   0.000  14.529   0.000
  0.000   0.000   0.000   0.000   7.791   0.000   0.000  14.529
 total augmentation occupancy for first ion, spin component:           1
  5.541  -2.071   0.000   0.000   0.000   0.000  -0.000  -0.000
 -2.071   0.890  -0.000  -0.000  -0.000  -0.000   0.000  -0.000
  0.000  -0.000   2.903  -0.000  -0.000  -0.649   0.000   0.000
 -0.000  -0.000  -0.000   2.903  -0.000   0.000  -0.649   0.000
 -0.000  -0.000  -0.000  -0.000   2.903   0.000   0.000  -0.649
 -0.000   0.000  -0.649   0.000   0.000   0.153  -0.000  -0.000
 -0.000   0.000   0.000  -0.649   0.000  -0.000   0.153  -0.000
  0.000   0.000   0.000   0.000  -0.649  -0.000  -0.000   0.153
 total augmentation occupancy for first ion, spin component:           2
  0.014  -0.007   0.000   0.000  -0.000  -0.000   0.000   0.000
 -0.007   0.003   0.000  -0.000   0.000   0.000  -0.000  -0.000
  0.000   0.000   0.002  -0.000  -0.000  -0.001   0.000   0.000
 -0.000   0.000  -0.000   0.002  -0.000   0.000  -0.001   0.000
 -0.000   0.000  -0.000  -0.000   0.002   0.000   0.000  -0.001
  0.000  -0.000  -0.001   0.000   0.000   0.000  -0.000  -0.000
 -0.000   0.000   0.000  -0.001   0.000  -0.000   0.000  -0.000
 -0.000  -0.000   0.000   0.000  -0.001  -0.000  -0.000   0.000


------------------------ aborting loop because EDIFF is reached ----------------------------------------





 total charge

# of ion       s       p       d       tot
------------------------------------------
    1        0.751   0.928   0.000   1.679
    2        0.751   0.928   0.000   1.679
--------------------------------------------------
tot          1.502   1.856   0.000   3.357



 magnetization (x)

# of ion       s       p       d       tot
------------------------------------------
    1        0.000  -0.000   0.000  -0.000
    2        0.000  -0.000   0.000  -0.000
--------------------------------------------------
tot          0.000  -0.000   0.000  -0.000
 
    CHARGE:  cpu time    0.1022: real time    0.1030
    FORLOC:  cpu time    0.0019: real time    0.0076
    FORNL :  cpu time    0.7617: real time    0.7706
    STRESS:  cpu time    2.1324: real time    2.1514
    FORCOR:  cpu time    0.0941: real time    0.1008
    FORHAR:  cpu time    0.0093: real time    0.0093
    MIXING:  cpu time    0.0031: real time    0.0031
    OFIELD:  cpu time    0.0000: real time    0.0000

  FORCE on cell =-STRESS in cart. coord.  units (eV):
  Direction    XX          YY          ZZ          XY          YZ          ZX
  --------------------------------------------------------------------------------------
  Alpha Z     3.29318     3.29318     3.29318
  Ewald     -75.64832   -75.64835   -75.64832    -0.00001     0.00001     0.00001
  Hartree     5.05790     5.05790     5.05790    -0.00000     0.00000     0.00000
  E(xc)     -25.24567   -25.24567   -25.24567    -0.00000    -0.00000    -0.00000
  Local     -29.50193   -29.50193   -29.50194     0.00001    -0.00000    -0.00000
  n-local    73.81916    77.18248    81.32125    -0.91808    -0.83201    -0.02151
  augment   -11.64809   -11.64809   -11.64810    -0.00000    -0.00000    -0.00000
  Kinetic    53.03370    55.03000    60.68926     0.85407     1.16565    -0.54248
  Fock        0.00000     0.00000     0.00000     0.00000     0.00000     0.00000
  -------------------------------------------------------------------------------------
  Total      -0.00099    -0.00099    -0.00099     0.00000     0.00000     0.00000
  in kB      -0.03894    -0.03894    -0.03894     0.00000     0.00000     0.00000
  external pressure =       -0.04 kB  Pullay stress =        0.00 kB


 VOLUME and BASIS-vectors are now :
 -----------------------------------------------------------------------------
  energy-cutoff  :      680.00
  volume of cell :       40.89
      direct lattice vectors                 reciprocal lattice vectors
     3.348898000  0.000000000  1.933487000     0.298605691 -0.105573000  0.000000000
     1.116299000  3.157372000  1.933487000     0.000000000  0.316719094  0.000000000
     0.000000000  0.000000000  3.866975000    -0.149302807 -0.105573020  0.258600069

  length of vectors
     3.866974243  3.866974707  3.866975000     0.316719145  0.316719094  0.316719096


 FORCES acting on ions
    electron-ion (+dipol)            ewald-force                    non-local-force                 convergence-correction
 -----------------------------------------------------------------------------------------------
   0.371E-05 -.681E-05 -.830E-05   -.634E-05 0.116E-04 0.142E-04   -.293E-16 -.113E-16 0.595E-16   0.334E-08 -.562E-08 -.668E-08
   -.371E-05 0.681E-05 0.830E-05   0.634E-05 -.116E-04 -.142E-04   0.369E-16 0.741E-17 -.585E-16   -.334E-08 0.562E-08 0.668E-08
 -----------------------------------------------------------------------------------------------
   -.406E-13 0.314E-13 0.939E-13   0.718E-18 -.107E-15 0.148E-15   0.763E-17 -.385E-17 0.101E-17   -.155E-14 0.599E-15 -.581E-15
 
 
 POSITION                                       TOTAL-FORCE (eV/Angst)
 -----------------------------------------------------------------------------------
      1.11630      0.78934      1.93349         0.000000      0.000000     -0.000000
      0.00000      0.00000      0.00000        -0.000000     -0.000000      0.000000
 -----------------------------------------------------------------------------------
    total drift:                               -0.000000      0.000000      0.000000


--------------------------------------------------------------------------------------------------------



  FREE ENERGIE OF THE ION-ELECTRON SYSTEM (eV)
  ---------------------------------------------------
  free  energy   TOTEN  =       -10.85030447 eV

  energy  without entropy=      -10.85083141  energy(sigma->0) =      -10.85043620
 


--------------------------------------------------------------------------------------------------------


    POTLOK:  cpu time    0.2302: real time    0.2311


--------------------------------------------------------------------------------------------------------




--------------------------------------------------------------------------------------------------------


  
 reached required accuracy - stopping structural energy minimisation
     LOOP+:  cpu time   39.6537: real time   41.8558
    4ORBIT:  cpu time    0.0000: real time    0.0000



 total charge

# of ion       s       p       d       tot
------------------------------------------
    1        0.751   0.928   0.000   1.679
    2        0.751   0.928   0.000   1.679
--------------------------------------------------
tot          1.502   1.856   0.000   3.357



 magnetization (x)

# of ion       s       p       d       tot
------------------------------------------
    1        0.000  -0.000   0.000  -0.000
    2        0.000  -0.000   0.000  -0.000
--------------------------------------------------
tot          0.000  -0.000   0.000  -0.000
 

 total amount of memory used by VASP MPI-rank0    52852. kBytes
=======================================================================

   base      :      30000. kBytes
   nonlr-proj:       1161. kBytes
   fftplans  :       3408. kBytes
   grid      :      10637. kBytes
   one-center:         12. kBytes
   wavefun   :       7634. kBytes
 
  
  
 General timing and accounting informations for this job:
 ========================================================
  
                  Total CPU time used (sec):       44.310
                            User time (sec):       42.423
                          System time (sec):        1.887
                         Elapsed time (sec):       46.706
  
                   Maximum memory used (kb):    63381504.
                   Average memory used (kb):          N/A
  
                          Minor page faults:        49453
                          Major page faults:          965
                 Voluntary context switches:           22
