<?xml version="1.0" encoding="ISO-8859-1"?>
<modeling>
 <generator>
  <i name="program" type="string">vasp </i>
  <i name="version" type="string">6.2.1  </i>
  <i name="subversion" type="string">16May21 (build Oct 27 2021 18:14:32) complex                          parallel </i>
  <i name="platform" type="string">LinuxIFC </i>
  <i name="date" type="string">2021 10 28 </i>
  <i name="time" type="string">10:31:15 </i>
 </generator>
 <incar>
  <i type="string" name="PREC">Accurate</i>
  <i type="string" name="ALGO">Fast</i>
  <i type="int" name="ISPIN">     2</i>
  <i type="int" name="NELM">   200</i>
  <i type="int" name="IBRION">     2</i>
  <i name="EDIFF">      0.00001000</i>
  <i name="EDIFFG">     -0.02000000</i>
  <i type="int" name="NSW">    99</i>
  <i type="int" name="ISIF">     3</i>
  <i name="ENCUT">    680.00000000</i>
  <i name="ENAUG">   1360.00000000</i>
  <v name="MAGMOM">      0.60000000      0.60000000</v>
  <i type="string" name="LREAL">Auto</i>
  <i type="int" name="ISMEAR">     2</i>
  <i name="SIGMA">      0.20000000</i>
  <i name="KSPACING">      0.22000000</i>
  <i type="logical" name="LWAVE"> F  </i>
  <i type="logical" name="LCHARG"> F  </i>
  <i type="logical" name="LVTOT"> T  </i>
  <i type="int" name="LORBIT">    11</i>
  <i type="logical" name="LELF"> T  </i>
  <i type="logical" name="LASPH"> T  </i>
  <i type="logical" name="LAECHG"> T  </i>
  <i type="logical" name="LMIXTAU"> T  </i>
 </incar>
 <primitive_cell>
  <structure name="primitive_cell" >
   <crystal>
    <varray name="basis" >
     <v>       3.34889800       0.00000000       1.93348700 </v>
     <v>       1.11629900       3.15737200       1.93348700 </v>
     <v>       0.00000000       0.00000000       3.86697500 </v>
    </varray>
    <i name="volume">     40.88829843 </i>
    <varray name="rec_basis" >
     <v>       0.29860569      -0.10557300       0.00000000 </v>
     <v>       0.00000000       0.31671909       0.00000000 </v>
     <v>      -0.14930281      -0.10557302       0.25860007 </v>
    </varray>
   </crystal>
   <varray name="positions" >
    <v>       0.25000000       0.25000000       0.25000000 </v>
    <v>       0.00000000       0.00000000       0.00000000 </v>
   </varray>
  </structure>
  <varray name="primitive_index" >
   <v type="int" >        1 </v>
   <v type="int" >        2 </v>
  </varray>
 </primitive_cell>
 <kpoints>
  <generation param="Gamma">
   <v type="int" name="divisions">      10       10       10 </v>
   <v name="usershift">      0.00000000       0.00000000       0.00000000 </v>
   <v name="genvec1">      0.10000000      -0.00000000       0.00000000 </v>
   <v name="genvec2">      0.00000000       0.10000000       0.00000000 </v>
   <v name="genvec3">     -0.00000000       0.00000000       0.10000000 </v>
   <v name="shift">      0.00000000       0.00000000       0.00000000 </v>
  </generation>
  <varray name="kpointlist" >
   <v>       0.00000000       0.00000000       0.00000000 </v>
   <v>       0.10000000       0.00000000       0.00000000 </v>
   <v>       0.20000000       0.00000000       0.00000000 </v>
   <v>       0.30000000      -0.00000000       0.00000000 </v>
   <v>       0.40000000       0.00000000       0.00000000 </v>
   <v>       0.50000000       0.00000000       0.00000000 </v>
   <v>       0.10000000       0.10000000       0.00000000 </v>
   <v>       0.20000000       0.10000000       0.00000000 </v>
   <v>       0.30000000       0.10000000       0.00000000 </v>
   <v>       0.40000000       0.10000000       0.00000000 </v>
   <v>       0.50000000       0.10000000       0.00000000 </v>
   <v>      -0.40000000       0.10000000       0.00000000 </v>
   <v>      -0.30000000       0.10000000       0.00000000 </v>
   <v>      -0.20000000       0.10000000       0.00000000 </v>
   <v>      -0.10000000       0.10000000       0.00000000 </v>
   <v>       0.20000000       0.20000000       0.00000000 </v>
   <v>       0.30000000       0.20000000       0.00000000 </v>
   <v>       0.40000000       0.20000000       0.00000000 </v>
   <v>       0.50000000       0.20000000       0.00000000 </v>
   <v>      -0.40000000       0.20000000       0.00000000 </v>
   <v>      -0.30000000       0.20000000       0.00000000 </v>
   <v>      -0.20000000       0.20000000       0.00000000 </v>
   <v>       0.30000000       0.30000000       0.00000000 </v>
   <v>       0.40000000       0.30000000       0.00000000 </v>
   <v>       0.50000000       0.30000000       0.00000000 </v>
   <v>      -0.40000000       0.30000000       0.00000000 </v>
   <v>      -0.30000000       0.30000000       0.00000000 </v>
   <v>       0.40000000       0.40000000       0.00000000 </v>
   <v>       0.50000000       0.40000000       0.00000000 </v>
   <v>      -0.40000000       0.40000000       0.00000000 </v>
   <v>       0.50000000       0.50000000       0.00000000 </v>
   <v>       0.30000000       0.20000000       0.10000000 </v>
   <v>       0.40000000       0.20000000       0.10000000 </v>
   <v>       0.50000000       0.20000000       0.10000000 </v>
   <v>      -0.40000000       0.20000000       0.10000000 </v>
   <v>       0.40000000       0.30000000       0.10000000 </v>
   <v>       0.50000000       0.30000000       0.10000000 </v>
   <v>      -0.40000000       0.30000000       0.10000000 </v>
   <v>      -0.30000000       0.30000000       0.10000000 </v>
   <v>      -0.20000000       0.30000000       0.10000000 </v>
   <v>       0.50000000       0.40000000       0.10000000 </v>
   <v>      -0.40000000       0.40000000       0.10000000 </v>
   <v>      -0.30000000       0.40000000       0.10000000 </v>
   <v>      -0.40000000       0.50000000       0.10000000 </v>
   <v>      -0.40000000       0.40000000       0.20000000 </v>
   <v>      -0.30000000       0.40000000       0.20000000 </v>
   <v>      -0.30000000       0.50000000       0.20000000 </v>
  </varray>
  <varray name="weights" >
   <v>       0.00100000 </v>
   <v>       0.00800000 </v>
   <v>       0.00800000 </v>
   <v>       0.00800000 </v>
   <v>       0.00800000 </v>
   <v>       0.00400000 </v>
   <v>       0.00600000 </v>
   <v>       0.02400000 </v>
   <v>       0.02400000 </v>
   <v>       0.02400000 </v>
   <v>       0.02400000 </v>
   <v>       0.02400000 </v>
   <v>       0.02400000 </v>
   <v>       0.02400000 </v>
   <v>       0.01200000 </v>
   <v>       0.00600000 </v>
   <v>       0.02400000 </v>
   <v>       0.02400000 </v>
   <v>       0.02400000 </v>
   <v>       0.02400000 </v>
   <v>       0.02400000 </v>
   <v>       0.01200000 </v>
   <v>       0.00600000 </v>
   <v>       0.02400000 </v>
   <v>       0.02400000 </v>
   <v>       0.02400000 </v>
   <v>       0.01200000 </v>
   <v>       0.00600000 </v>
   <v>       0.02400000 </v>
   <v>       0.01200000 </v>
   <v>       0.00300000 </v>
   <v>       0.02400000 </v>
   <v>       0.04800000 </v>
   <v>       0.04800000 </v>
   <v>       0.02400000 </v>
   <v>       0.02400000 </v>
   <v>       0.04800000 </v>
   <v>       0.04800000 </v>
   <v>       0.04800000 </v>
   <v>       0.02400000 </v>
   <v>       0.02400000 </v>
   <v>       0.04800000 </v>
   <v>       0.02400000 </v>
   <v>       0.01200000 </v>
   <v>       0.02400000 </v>
   <v>       0.02400000 </v>
   <v>       0.01200000 </v>
  </varray>
 </kpoints>
 <parameters>
  <separator name="general" >
   <i type="string" name="SYSTEM">unknown system</i>
   <i type="logical" name="LCOMPAT"> F  </i>
  </separator>
  <separator name="electronic" >
   <i type="string" name="PREC">accura</i>
   <i name="ENMAX">    680.00000000</i>
   <i name="ENAUG">   1360.00000000</i>
   <i name="EDIFF">      0.00001000</i>
   <i type="int" name="IALGO">    68</i>
   <i type="int" name="IWAVPR">    11</i>
   <i type="int" name="NBANDS">    12</i>
   <i type="int" name="NBANDSLOW">    -1</i>
   <i type="int" name="NBANDSHIGH">    -1</i>
   <i name="NELECT">      8.00000000</i>
   <i type="int" name="TURBO">     0</i>
   <i type="int" name="IRESTART">     0</i>
   <i type="int" name="NREBOOT">     0</i>
   <i type="int" name="NMIN">     0</i>
   <i name="EREF">      0.00000000</i>
   <separator name="electronic smearing" >
    <i type="int" name="ISMEAR">     2</i>
    <i name="SIGMA">      0.20000000</i>
    <i name="KSPACING">      0.22000000</i>
    <i type="logical" name="KGAMMA"> T  </i>
    <i type="logical" name="KBLOWUP"> T  </i>
   </separator>
   <separator name="electronic projectors" >
    <i type="logical" name="LREAL"> T  </i>
    <v name="ROPT">     -0.00025000</v>
    <i type="int" name="LMAXPAW">  -100</i>
    <i type="int" name="LMAXMIX">     2</i>
    <i type="logical" name="NLSPLINE"> F  </i>
   </separator>
   <separator name="electronic startup" >
    <i type="int" name="ISTART">     0</i>
    <i type="int" name="ICHARG">     2</i>
    <i type="int" name="INIWAV">     1</i>
   </separator>
   <separator name="electronic spin" >
    <i type="int" name="ISPIN">     2</i>
    <i type="logical" name="LNONCOLLINEAR"> F  </i>
    <v name="MAGMOM">      0.60000000      0.60000000</v>
    <i name="NUPDOWN">     -1.00000000</i>
    <i type="logical" name="LSORBIT"> F  </i>
    <v name="SAXIS">      0.00000000      0.00000000      1.00000000</v>
    <i type="logical" name="LSPIRAL"> F  </i>
    <v name="QSPIRAL">      0.00000000      0.00000000      0.00000000</v>
    <i type="logical" name="LZEROZ"> F  </i>
   </separator>
   <separator name="electronic exchange-correlation" >
    <i type="logical" name="LASPH"> T  </i>
    <i type="logical" name="LMETAGGA"> F  </i>
   </separator>
   <separator name="electronic convergence" >
    <i type="int" name="NELM">   200</i>
    <i type="int" name="NELMDL">    -5</i>
    <i type="int" name="NELMIN">     2</i>
    <i name="ENINI">    680.00000000</i>
    <separator name="electronic convergence detail" >
     <i type="logical" name="LDIAG"> T  </i>
     <i type="logical" name="LSUBROT"> F  </i>
     <i name="WEIMIN">      0.00100000</i>
     <i name="EBREAK">      0.00000021</i>
     <i name="DEPER">      0.30000000</i>
     <i type="int" name="NRMM">     4</i>
     <i name="TIME">      0.40000000</i>
    </separator>
   </separator>
   <separator name="electronic mixer" >
    <i name="AMIX">      0.40000000</i>
    <i name="BMIX">      1.00000000</i>
    <i name="AMIN">      0.10000000</i>
    <i name="AMIX_MAG">      1.60000000</i>
    <i name="BMIX_MAG">      1.00000000</i>
    <separator name="electronic mixer details" >
     <i type="int" name="IMIX">     4</i>
     <i type="logical" name="MIXFIRST"> F  </i>
     <i type="int" name="MAXMIX">   -45</i>
     <i name="WC">    100.00000000</i>
     <i type="int" name="INIMIX">     1</i>
     <i type="int" name="MIXPRE">     1</i>
     <i type="int" name="MREMOVE">     5</i>
    </separator>
   </separator>
   <separator name="electronic dipolcorrection" >
    <i type="logical" name="LDIPOL"> F  </i>
    <i type="logical" name="LMONO"> F  </i>
    <i type="int" name="IDIPOL">     0</i>
    <i name="EPSILON">      1.00000000</i>
    <v name="DIPOL">   -100.00000000   -100.00000000   -100.00000000</v>
    <i name="EFIELD">      0.00000000</i>
   </separator>
  </separator>
  <separator name="grids" >
   <i type="int" name="NGX">    36</i>
   <i type="int" name="NGY">    36</i>
   <i type="int" name="NGZ">    36</i>
   <i type="int" name="NGXF">    72</i>
   <i type="int" name="NGYF">    72</i>
   <i type="int" name="NGZF">    72</i>
   <i type="logical" name="ADDGRID"> F  </i>
  </separator>
  <separator name="ionic" >
   <i type="int" name="NSW">    99</i>
   <i type="int" name="IBRION">     2</i>
   <i type="int" name="MDALGO">     0</i>
   <i type="int" name="ISIF">     3</i>
   <i name="PSTRESS">      0.00000000</i>
   <i name="EDIFFG">     -0.02000000</i>
   <i type="int" name="NFREE">     1</i>
   <i name="POTIM">      0.50000000</i>
   <i name="SMASS">     -3.00000000</i>
   <i name="SCALEE">      1.00000000</i>
  </separator>
  <separator name="ionic md" >
   <i name="TEBEG">      0.00010000</i>
   <i name="TEEND">      0.00010000</i>
   <i type="int" name="NBLOCK">     1</i>
   <i type="int" name="KBLOCK">    99</i>
   <i type="int" name="NPACO">   256</i>
   <i name="APACO">     16.00000000</i>
  </separator>
  <separator name="symmetry" >
   <i type="int" name="ISYM">     2</i>
   <i name="SYMPREC">      0.00001000</i>
  </separator>
  <separator name="dos" >
   <i type="int" name="LORBIT">    11</i>
   <v name="RWIGS">     -1.00000000</v>
   <i type="int" name="NEDOS">   301</i>
   <i name="EMIN">     10.00000000</i>
   <i name="EMAX">    -10.00000000</i>
   <i name="EFERMI">      0.00000000</i>
  </separator>
  <separator name="writing" >
   <i type="int" name="NWRITE">     2</i>
   <i type="logical" name="LWAVE"> F  </i>
   <i type="logical" name="LDOWNSAMPLE"> F  </i>
   <i type="logical" name="LCHARG"> F  </i>
   <i type="logical" name="LPARD"> F  </i>
   <i type="logical" name="LVTOT"> T  </i>
   <i type="logical" name="LVHAR"> F  </i>
   <i type="logical" name="LELF"> T  </i>
   <i type="logical" name="LOPTICS"> F  </i>
   <v name="STM">      0.00000000      0.00000000      0.00000000      0.00000000      0.00000000      0.00000000      0.00000000</v>
  </separator>
  <separator name="performance" >
   <i type="int" name="NPAR">     4</i>
   <i type="int" name="NSIM">     4</i>
   <i type="int" name="NBLK">    -1</i>
   <i type="logical" name="LPLANE"> T  </i>
   <i type="logical" name="LSCALAPACK"> F  </i>
   <i type="logical" name="LSCAAWARE"> F  </i>
   <i type="logical" name="LSCALU"> F  </i>
   <i type="logical" name="LASYNC"> F  </i>
   <i type="logical" name="LORBITALREAL"> F  </i>
  </separator>
  <separator name="miscellaneous" >
   <i type="int" name="IDIOT">     3</i>
   <i type="int" name="PHON_NSTRUCT">    -1</i>
   <i type="logical" name="LMUSIC"> F  </i>
   <v name="POMASS">     28.08500000</v>
   <v name="DARWINR">      0.00000000</v>
   <v name="DARWINV">      1.00000000</v>
   <i type="logical" name="LCORR"> T  </i>
  </separator>
  <i type="logical" name="GGA_COMPAT"> T  </i>
  <i type="logical" name="LBERRY"> F  </i>
  <i type="int" name="ICORELEVEL">     0</i>
  <i type="logical" name="LDAU"> F  </i>
  <i type="int" name="I_CONSTRAINED_M">     0</i>
  <separator name="electronic exchange-correlation" >
   <i type="string" name="GGA">--</i>
   <i type="int" name="VOSKOWN">     0</i>
   <i type="logical" name="LHFCALC"> F  </i>
   <i type="string" name="PRECFOCK"></i>
   <i type="logical" name="LSYMGRAD"> F  </i>
   <i type="logical" name="LHFONE"> F  </i>
   <i type="logical" name="LRHFCALC"> F  </i>
   <i type="logical" name="LTHOMAS"> F  </i>
   <i type="logical" name="LMODELHF"> F  </i>
   <i type="logical" name="LFOCKACE"> F  </i>
   <i name="ENCUT4O">     -1.00000000</i>
   <i type="int" name="EXXOEP">     0</i>
   <i type="int" name="FOURORBIT">     0</i>
   <i name="AEXX">      0.00000000</i>
   <i name="HFALPHA">      0.00000000</i>
   <i name="MCALPHA">      0.00000000</i>
   <i name="ALDAX">      1.00000000</i>
   <i name="AGGAX">      1.00000000</i>
   <i name="ALDAC">      1.00000000</i>
   <i name="AGGAC">      1.00000000</i>
   <i type="int" name="NKREDX">     1</i>
   <i type="int" name="NKREDY">     1</i>
   <i type="int" name="NKREDZ">     1</i>
   <i type="logical" name="SHIFTRED"> F  </i>
   <i type="logical" name="ODDONLY"> F  </i>
   <i type="logical" name="EVENONLY"> F  </i>
   <i type="int" name="LMAXFOCK">     0</i>
   <i type="int" name="NMAXFOCKAE">     0</i>
   <i type="logical" name="LFOCKAEDFT"> F  </i>
   <i name="HFSCREEN">      0.00000000</i>
   <i name="HFSCREENC">      0.00000000</i>
   <i type="int" name="NBANDSGWLOW">     0</i>
  </separator>
  <separator name="vdW DFT" >
   <i type="logical" name="LUSE_VDW"> F  </i>
   <i name="Zab_VDW">     -0.84910000</i>
   <i name="PARAM1">      0.12340000</i>
   <i name="PARAM2">      1.00000000</i>
   <i name="PARAM3">      0.00000000</i>
  </separator>
  <separator name="model GW" >
   <i type="int" name="MODEL_GW">     0</i>
   <i name="MODEL_EPS0">     12.26648953</i>
   <i name="MODEL_ALPHA">      1.00000000</i>
  </separator>
  <separator name="linear response parameters" >
   <i type="logical" name="LEPSILON"> F  </i>
   <i type="logical" name="LRPA"> F  </i>
   <i type="logical" name="LNABLA"> F  </i>
   <i type="logical" name="LVEL"> F  </i>
   <i type="int" name="KINTER">     0</i>
   <i name="CSHIFT">      0.10000000</i>
   <i name="OMEGAMAX">     -1.00000000</i>
   <i name="DEG_THRESHOLD">      0.00200000</i>
   <i name="RTIME">     -0.10000000</i>
   <i name="WPLASMAI">      0.00000000</i>
   <v name="DFIELD">      0.00000000      0.00000000      0.00000000</v>
   <v name="WPLASMA">      0.00000000      0.00000000      0.00000000      0.00000000      0.00000000      0.00000000      0.00000000      0.00000000      0.00000000</v>
  </separator>
  <separator name="orbital magnetization" >
   <i type="logical" name="NUCIND"> F  </i>
   <v name="MAGPOS">      0.00000000      0.00000000      0.00000000</v>
   <i type="logical" name="LNICSALL"> T  </i>
   <i type="logical" name="ORBITALMAG"> F  </i>
   <i type="logical" name="LMAGBLOCH"> F  </i>
   <i type="logical" name="LCHIMAG"> F  </i>
   <i type="logical" name="LGAUGE"> T  </i>
   <i type="int" name="MAGATOM">     0</i>
   <v name="MAGDIPOL">      0.00000000      0.00000000      0.00000000</v>
   <v name="AVECCONST">      0.00000000      0.00000000      0.00000000</v>
  </separator>
  <separator name="response functions" >
   <i type="logical" name="LFINITE_TEMPERATURE"> F  </i>
   <i type="logical" name="LADDER"> F  </i>
   <i type="logical" name="LRPAFORCE"> F  </i>
   <i type="logical" name="LFXC"> F  </i>
   <i type="logical" name="LHARTREE"> T  </i>
   <i type="int" name="IBSE">     0</i>
   <v type="int" name="KPOINT">    -1     0     0     0</v>
   <i type="logical" name="LTCTC"> F  </i>
   <i type="logical" name="LTCTE"> F  </i>
   <i type="logical" name="LTETE"> F  </i>
   <i type="logical" name="LTRIPLET"> F  </i>
   <i type="logical" name="LFXCEPS"> F  </i>
   <i type="logical" name="LFXHEG"> F  </i>
   <i type="int" name="NATURALO">     2</i>
   <i type="logical" name="LHOLEGF"> F  </i>
   <i type="logical" name="L2ORDER"> F  </i>
   <i type="logical" name="LDMP1"> F  </i>
   <i type="logical" name="LMP2LT"> F  </i>
   <i type="logical" name="LSMP2LT"> F  </i>
   <i type="logical" name="LGWLF"> F  </i>
   <i name="ENCUTGW">     -2.00000000</i>
   <i name="ENCUTGWSOFT">     -2.00000000</i>
   <i name="ENCUTLF">     -1.00000000</i>
   <i type="logical" name="LESF_SPLINES"> F  </i>
   <i type="int" name="LMAXMP2">    -1</i>
   <i name="SCISSOR">      0.00000000</i>
   <i type="int" name="NOMEGA">     0</i>
   <i type="int" name="NOMEGAR">     0</i>
   <i type="int" name="NBANDSGW">    -1</i>
   <i type="int" name="NBANDSO">    -1</i>
   <i type="int" name="NBANDSV">    -1</i>
   <i type="int" name="NELM">   200</i>
   <i type="int" name="NELMHF">     1</i>
   <i type="int" name="DIM">     3</i>
   <i type="int" name="IESPILON">     4</i>
   <i type="int" name="ANTIRES">     0</i>
   <i name="OMEGAMAX">    -30.00000000</i>
   <i name="OMEGAMIN">    -30.00000000</i>
   <i name="OMEGATL">   -200.00000000</i>
   <i type="int" name="OMEGAGRID">     0</i>
   <i name="CSHIFT">     -0.10000000</i>
   <i type="logical" name="LSELFENERGY"> F  </i>
   <i type="logical" name="LSPECTRAL"> F  </i>
   <i type="logical" name="LSPECTRALGW"> F  </i>
   <i type="logical" name="LSINGLES"> F  </i>
   <i type="logical" name="LFERMIGW"> F  </i>
   <i type="logical" name="ODDONLYGW"> F  </i>
   <i type="logical" name="EVENONLYGW"> F  </i>
   <i type="int" name="NKREDLFX">     1</i>
   <i type="int" name="NKREDLFY">     1</i>
   <i type="int" name="NKREDLFZ">     1</i>
   <i type="int" name="MAXMEM">  2800</i>
   <i type="int" name="TELESCOPE">     0</i>
   <i type="int" name="NTAUPAR">    -1</i>
   <i type="int" name="NOMEGAPAR">    -1</i>
   <i name="DAMP_NEWTON">      0.80000001</i>
   <i name="LAMBDA">      1.00000000</i>
  </separator>
  <separator name="External order field" >
   <i name="OFIELD_KAPPA">      0.00000000</i>
   <v name="OFIELD_K">      0.00000000      0.00000000      0.00000000</v>
   <i name="OFIELD_Q6_NEAR">      0.00000000</i>
   <i name="OFIELD_Q6_FAR">      0.00000000</i>
   <i name="OFIELD_A">      0.00000000</i>
  </separator>
 </parameters>
 <atominfo>
  <atoms>       2 </atoms>
  <types>       1 </types>
  <array name="atoms" >
   <dimension dim="1">ion</dimension>
   <field type="string">element</field>
   <field type="int">atomtype</field>
   <set>
    <rc><c>Si</c><c>   1</c></rc>
    <rc><c>Si</c><c>   1</c></rc>
   </set>
  </array>
  <array name="atomtypes" >
   <dimension dim="1">type</dimension>
   <field type="int">atomspertype</field>
   <field type="string">element</field>
   <field>mass</field>
   <field>valence</field>
   <field type="string">pseudopotential</field>
   <set>
    <rc><c>   2</c><c>Si</c><c>     28.08500000</c><c>      4.00000000</c><c>  PAW_PBE Si 05Jan2001                  </c></rc>
   </set>
  </array>
 </atominfo>
 <structure name="initialpos" >
  <crystal>
   <varray name="basis" >
    <v>       3.34889800       0.00000000       1.93348700 </v>
    <v>       1.11629900       3.15737200       1.93348700 </v>
    <v>       0.00000000       0.00000000       3.86697500 </v>
   </varray>
   <i name="volume">     40.88829843 </i>
   <varray name="rec_basis" >
    <v>       0.29860569      -0.10557300       0.00000000 </v>
    <v>       0.00000000       0.31671909       0.00000000 </v>
    <v>      -0.14930281      -0.10557302       0.25860007 </v>
   </varray>
  </crystal>
  <varray name="positions" >
   <v>       0.25000000       0.25000000       0.25000000 </v>
   <v>       0.00000000       0.00000000       0.00000000 </v>
  </varray>
 </structure>
 <calculation>
  <scstep>
   <time name="dav">    3.39    3.51</time>
   <time name="total">    3.64    3.76</time>
   <energy>
    <i name="alphaZ">      3.29317992 </i>
    <i name="ewald">   -226.94489173 </i>
    <i name="hartreedc">    -11.32339116 </i>
    <i name="XCdc">    -18.60569953 </i>
    <i name="pawpsdc">    176.18363791 </i>
    <i name="pawaedc">   -140.99252705 </i>
    <i name="eentropy">     -0.00092834 </i>
    <i name="bandstr">     20.81340687 </i>
    <i name="atom">    206.13322186 </i>
    <i name="e_fr_energy">      8.55600875 </i>
    <i name="e_wo_entrp">      8.55693709 </i>
    <i name="e_0_energy">      8.55624083 </i>
   </energy>
  </scstep>
  <scstep>
   <time name="dav">    4.28    4.40</time>
   <time name="total">    4.28    4.40</time>
   <energy>
    <i name="e_fr_energy">    -10.17175703 </i>
    <i name="e_wo_entrp">    -10.17163675 </i>
    <i name="e_0_energy">    -10.17172696 </i>
   </energy>
  </scstep>
  <scstep>
   <time name="dav">    3.08    3.09</time>
   <time name="total">    3.08    3.09</time>
   <energy>
    <i name="e_fr_energy">    -10.82738962 </i>
    <i name="e_wo_entrp">    -10.82763965 </i>
    <i name="e_0_energy">    -10.82745213 </i>
   </energy>
  </scstep>
  <scstep>
   <time name="dav">    2.63    2.63</time>
   <time name="total">    2.63    2.64</time>
   <energy>
    <i name="e_fr_energy">    -10.83243719 </i>
    <i name="e_wo_entrp">    -10.83268554 </i>
    <i name="e_0_energy">    -10.83249928 </i>
   </energy>
  </scstep>
  <scstep>
   <time name="dav">    2.80    2.81</time>
   <time name="total">    2.90    2.92</time>
   <energy>
    <i name="e_fr_energy">    -10.83248923 </i>
    <i name="e_wo_entrp">    -10.83273756 </i>
    <i name="e_0_energy">    -10.83255131 </i>
   </energy>
  </scstep>
  <scstep>
   <time name="diag">    0.27    0.28</time>
   <time name="diis">    1.53    1.54</time>
   <time name="orth">    0.01    0.01</time>
   <time name="total">    2.14    2.15</time>
   <energy>
    <i name="e_fr_energy">    -10.89051712 </i>
    <i name="e_wo_entrp">    -10.89079474 </i>
    <i name="e_0_energy">    -10.89058653 </i>
   </energy>
  </scstep>
  <scstep>
   <time name="diag">    0.28    0.28</time>
   <time name="diis">    1.58    1.59</time>
   <time name="orth">    0.01    0.01</time>
   <time name="total">    2.20    2.21</time>
   <energy>
    <i name="e_fr_energy">    -10.83190348 </i>
    <i name="e_wo_entrp">    -10.83212152 </i>
    <i name="e_0_energy">    -10.83195799 </i>
   </energy>
  </scstep>
  <scstep>
   <time name="diag">    0.36    0.37</time>
   <time name="diis">    2.18    2.26</time>
   <time name="orth">    0.02    0.02</time>
   <time name="total">    2.89    2.98</time>
   <energy>
    <i name="e_fr_energy">    -10.84925928 </i>
    <i name="e_wo_entrp">    -10.84976864 </i>
    <i name="e_0_energy">    -10.84938662 </i>
   </energy>
  </scstep>
  <scstep>
   <time name="diag">    0.30    0.30</time>
   <time name="diis">    1.93    1.98</time>
   <time name="orth">    0.02    0.02</time>
   <time name="total">    2.60    2.65</time>
   <energy>
    <i name="e_fr_energy">    -10.84980351 </i>
    <i name="e_wo_entrp">    -10.85032876 </i>
    <i name="e_0_energy">    -10.84993483 </i>
   </energy>
  </scstep>
  <scstep>
   <time name="diag">    0.42    0.43</time>
   <time name="diis">    2.99    4.16</time>
   <time name="orth">    0.06    0.10</time>
   <time name="total">    3.99    5.30</time>
   <energy>
    <i name="e_fr_energy">    -10.85022204 </i>
    <i name="e_wo_entrp">    -10.85074857 </i>
    <i name="e_0_energy">    -10.85035367 </i>
   </energy>
  </scstep>
  <scstep>
   <time name="diag">    0.80    0.87</time>
   <time name="diis">    2.24    2.49</time>
   <time name="orth">    0.02    0.02</time>
   <time name="total">    3.52    3.86</time>
   <energy>
    <i name="e_fr_energy">    -10.85030061 </i>
    <i name="e_wo_entrp">    -10.85082743 </i>
    <i name="e_0_energy">    -10.85043232 </i>
   </energy>
  </scstep>
  <scstep>
   <time name="diag">    0.47    0.49</time>
   <time name="diis">    1.55    1.56</time>
   <time name="orth">    0.01    0.01</time>
   <time name="total">    2.31    2.35</time>
   <energy>
    <i name="alphaZ">      3.29317992 </i>
    <i name="ewald">   -226.94489173 </i>
    <i name="hartreedc">    -15.16955356 </i>
    <i name="XCdc">    -18.06151267 </i>
    <i name="pawpsdc">    833.12411132 </i>
    <i name="pawaedc">   -798.14288765 </i>
    <i name="eentropy">      0.00052694 </i>
    <i name="bandstr">      4.91750110 </i>
    <i name="atom">    206.13322186 </i>
    <i name="e_fr_energy">    -10.85030447 </i>
    <i name="e_wo_entrp">    -10.85083141 </i>
    <i name="e_0_energy">    -10.85043620 </i>
   </energy>
  </scstep>
  <structure>
   <crystal>
    <varray name="basis" >
     <v>       3.34889800       0.00000000       1.93348700 </v>
     <v>       1.11629900       3.15737200       1.93348700 </v>
     <v>       0.00000000       0.00000000       3.86697500 </v>
    </varray>
    <i name="volume">     40.88829843 </i>
    <varray name="rec_basis" >
     <v>       0.29860569      -0.10557300       0.00000000 </v>
     <v>       0.00000000       0.31671909       0.00000000 </v>
     <v>      -0.14930281      -0.10557302       0.25860007 </v>
    </varray>
   </crystal>
   <varray name="positions" >
    <v>       0.25000000       0.25000000       0.25000000 </v>
    <v>       0.00000000       0.00000000       0.00000000 </v>
   </varray>
  </structure>
  <varray name="forces" >
   <v>       0.00000000       0.00000000      -0.00000000 </v>
   <v>      -0.00000000      -0.00000000       0.00000000 </v>
  </varray>
  <varray name="stress" >
   <v>      -0.03894458       0.00000000       0.00000001 </v>
   <v>       0.00000000      -0.03894460       0.00000000 </v>
   <v>       0.00000001       0.00000000      -0.03894459 </v>
  </varray>
  <energy>
   <i name="e_fr_energy">    -10.85030447 </i>
   <i name="e_wo_entrp">    -10.85083141 </i>
   <i name="e_0_energy">    -10.85043620 </i>
  </energy>
  <time name="totalsc">   39.65   41.86</time>
  <eigenvalues>
   <array>
    <dimension dim="1">band</dimension>
    <dimension dim="2">kpoint</dimension>
    <dimension dim="3">spin</dimension>
    <field>eigene</field>
    <field>occ</field>
    <set>
     <set comment="spin 1">
      <set comment="kpoint 1">
       <r>   -6.1995    1.0000 </r>
       <r>    5.6158    0.5444 </r>
       <r>    5.6158    0.5444 </r>
       <r>    5.6158    0.5444 </r>
       <r>    8.1722    0.0000 </r>
       <r>    8.1722    0.0000 </r>
       <r>    8.1722    0.0000 </r>
       <r>    8.7483    0.0000 </r>
       <r>   13.3248    0.0000 </r>
       <r>   13.3248    0.0000 </r>
       <r>   13.4907    0.0000 </r>
       <r>   16.7968    0.0000 </r>
      </set>
      <set comment="kpoint 2">
       <r>   -6.0709    1.0000 </r>
       <r>    4.4735    1.0000 </r>
       <r>    5.4220    1.0508 </r>
       <r>    5.4220    1.0508 </r>
       <r>    8.1379    0.0000 </r>
       <r>    8.4580    0.0000 </r>
       <r>    8.4580    0.0000 </r>
       <r>    9.7188    0.0000 </r>
       <r>   12.9749    0.0000 </r>
       <r>   12.9749    0.0000 </r>
       <r>   14.0206    0.0000 </r>
       <r>   16.3776    0.0000 </r>
      </set>
      <set comment="kpoint 3">
       <r>   -5.6915    1.0000 </r>
       <r>    2.6335    1.0000 </r>
       <r>    5.0482    0.9995 </r>
       <r>    5.0482    0.9995 </r>
       <r>    7.7674    0.0000 </r>
       <r>    8.9599    0.0000 </r>
       <r>    8.9599    0.0000 </r>
       <r>   11.4934    0.0000 </r>
       <r>   12.6640    0.0000 </r>
       <r>   12.6640    0.0000 </r>
       <r>   14.6897    0.0000 </r>
       <r>   16.4717    0.0000 </r>
      </set>
      <set comment="kpoint 4">
       <r>   -5.0881    1.0000 </r>
       <r>    0.8754    1.0000 </r>
       <r>    4.7181    1.0000 </r>
       <r>    4.7181    1.0000 </r>
       <r>    7.4037    0.0000 </r>
       <r>    9.1404    0.0000 </r>
       <r>    9.1404    0.0000 </r>
       <r>   13.1151    0.0000 </r>
       <r>   13.1897    0.0000 </r>
       <r>   13.1897    0.0000 </r>
       <r>   14.4366    0.0000 </r>
       <r>   18.3837    0.0000 </r>
      </set>
      <set comment="kpoint 5">
       <r>   -4.3583    1.0000 </r>
       <r>   -0.5729    1.0000 </r>
       <r>    4.5082    1.0000 </r>
       <r>    4.5082    1.0000 </r>
       <r>    7.1637    0.0000 </r>
       <r>    9.0359    0.0000 </r>
       <r>    9.0359    0.0000 </r>
       <r>   13.4190    0.0000 </r>
       <r>   14.5520    0.0000 </r>
       <r>   14.5520    0.0000 </r>
       <r>   15.5275    0.0000 </r>
       <r>   18.6869    0.0000 </r>
      </set>
      <set comment="kpoint 6">
       <r>   -3.9207    1.0000 </r>
       <r>   -1.2534    1.0000 </r>
       <r>    4.4373    1.0000 </r>
       <r>    4.4373    1.0000 </r>
       <r>    7.0814    0.0000 </r>
       <r>    8.9647    0.0000 </r>
       <r>    8.9647    0.0000 </r>
       <r>   13.3160    0.0000 </r>
       <r>   16.1108    0.0000 </r>
       <r>   16.1108    0.0000 </r>
       <r>   16.7964    0.0000 </r>
       <r>   16.8351    0.0000 </r>
      </set>
      <set comment="kpoint 7">
       <r>   -6.0277    1.0000 </r>
       <r>    4.6599    1.0000 </r>
       <r>    5.0542    0.9994 </r>
       <r>    5.0542    0.9994 </r>
       <r>    7.8003    0.0000 </r>
       <r>    8.9447    0.0000 </r>
       <r>    8.9447    0.0000 </r>
       <r>    9.6032    0.0000 </r>
       <r>   12.3520    0.0000 </r>
       <r>   13.5157    0.0000 </r>
       <r>   14.2025    0.0000 </r>
       <r>   17.1000    0.0000 </r>
      </set>
      <set comment="kpoint 8">
       <r>   -5.7307    1.0000 </r>
       <r>    3.1740    1.0000 </r>
       <r>    4.6277    1.0000 </r>
       <r>    4.7856    1.0000 </r>
       <r>    7.8545    0.0000 </r>
       <r>    8.9536    0.0000 </r>
       <r>    9.5884    0.0000 </r>
       <r>   10.5278    0.0000 </r>
       <r>   12.3078    0.0000 </r>
       <r>   13.5054    0.0000 </r>
       <r>   15.0982    0.0000 </r>
       <r>   16.7073    0.0000 </r>
      </set>
      <set comment="kpoint 9">
       <r>   -5.1974    1.0000 </r>
       <r>    1.4432    1.0000 </r>
       <r>    4.3134    1.0000 </r>
       <r>    4.3577    1.0000 </r>
       <r>    7.9624    0.0000 </r>
       <r>    8.9569    0.0000 </r>
       <r>    9.8753    0.0000 </r>
       <r>   10.9169    0.0000 </r>
       <r>   13.7377    0.0000 </r>
       <r>   13.8848    0.0000 </r>
       <r>   15.1049    0.0000 </r>
       <r>   17.8377    0.0000 </r>
      </set>
      <set comment="kpoint 10">
       <r>   -4.4889    1.0000 </r>
       <r>   -0.1010    1.0000 </r>
       <r>    3.9526    1.0000 </r>
       <r>    4.1670    1.0000 </r>
       <r>    7.8055    0.0000 </r>
       <r>    8.9450    0.0000 </r>
       <r>    9.7116    0.0000 </r>
       <r>   11.9617    0.0000 </r>
       <r>   14.5209    0.0000 </r>
       <r>   15.0956    0.0000 </r>
       <r>   15.6914    0.0000 </r>
       <r>   18.4255    0.0000 </r>
      </set>
      <set comment="kpoint 11">
       <r>   -3.8659    1.0000 </r>
       <r>   -1.1140    1.0000 </r>
       <r>    3.6680    1.0000 </r>
       <r>    4.1977    1.0000 </r>
       <r>    7.7120    0.0000 </r>
       <r>    8.9257    0.0000 </r>
       <r>    9.4547    0.0000 </r>
       <r>   13.3546    0.0000 </r>
       <r>   14.4695    0.0000 </r>
       <r>   16.0485    0.0000 </r>
       <r>   16.9318    0.0000 </r>
       <r>   17.0541    0.0000 </r>
      </set>
      <set comment="kpoint 12">
       <r>   -4.0279    1.0000 </r>
       <r>   -0.8717    1.0000 </r>
       <r>    3.5441    1.0000 </r>
       <r>    4.3925    1.0000 </r>
       <r>    7.7668    0.0000 </r>
       <r>    9.0599    0.0000 </r>
       <r>    9.3018    0.0000 </r>
       <r>   13.6059    0.0000 </r>
       <r>   14.1722    0.0000 </r>
       <r>   14.8298    0.0000 </r>
       <r>   16.6505    0.0000 </r>
       <r>   17.6696    0.0000 </r>
      </set>
      <set comment="kpoint 13">
       <r>   -4.7387    1.0000 </r>
       <r>    0.3834    1.0000 </r>
       <r>    3.6063    1.0000 </r>
       <r>    4.7204    1.0000 </r>
       <r>    7.9662    0.0000 </r>
       <r>    9.2247    0.0000 </r>
       <r>    9.3034    0.0000 </r>
       <r>   12.5455    0.0000 </r>
       <r>   12.6682    0.0000 </r>
       <r>   14.9033    0.0000 </r>
       <r>   15.8046    0.0000 </r>
       <r>   18.2416    0.0000 </r>
      </set>
      <set comment="kpoint 14">
       <r>   -5.4009    1.0000 </r>
       <r>    2.0029    1.0000 </r>
       <r>    3.8816    1.0000 </r>
       <r>    5.1189    0.9981 </r>
       <r>    8.2737    0.0000 </r>
       <r>    8.9719    0.0000 </r>
       <r>    9.2988    0.0000 </r>
       <r>   11.4853    0.0000 </r>
       <r>   11.9752    0.0000 </r>
       <r>   14.1454    0.0000 </r>
       <r>   15.3085    0.0000 </r>
       <r>   17.1325    0.0000 </r>
      </set>
      <set comment="kpoint 15">
       <r>   -5.8582    1.0000 </r>
       <r>    3.5886    1.0000 </r>
       <r>    4.4846    1.0000 </r>
       <r>    5.4404    1.0511 </r>
       <r>    8.5261    0.0000 </r>
       <r>    8.5267    0.0000 </r>
       <r>    8.7048    0.0000 </r>
       <r>   10.6645    0.0000 </r>
       <r>   12.2319    0.0000 </r>
       <r>   13.2301    0.0000 </r>
       <r>   14.7588    0.0000 </r>
       <r>   16.6421    0.0000 </r>
      </set>
      <set comment="kpoint 16">
       <r>   -5.5164    1.0000 </r>
       <r>    2.9808    1.0000 </r>
       <r>    4.1613    1.0000 </r>
       <r>    4.1613    1.0000 </r>
       <r>    7.0912    0.0000 </r>
       <r>    9.4679    0.0000 </r>
       <r>   10.4566    0.0000 </r>
       <r>   10.4566    0.0000 </r>
       <r>   12.5539    0.0000 </r>
       <r>   14.0878    0.0000 </r>
       <r>   15.8982    0.0000 </r>
       <r>   17.9623    0.0000 </r>
      </set>
      <set comment="kpoint 17">
       <r>   -5.0592    1.0000 </r>
       <r>    1.7584    1.0000 </r>
       <r>    3.6588    1.0000 </r>
       <r>    3.8190    1.0000 </r>
       <r>    7.1871    0.0000 </r>
       <r>    9.0596    0.0000 </r>
       <r>   10.7065    0.0000 </r>
       <r>   11.0448    0.0000 </r>
       <r>   14.0197    0.0000 </r>
       <r>   14.5486    0.0000 </r>
       <r>   16.6042    0.0000 </r>
       <r>   18.0844    0.0000 </r>
      </set>
      <set comment="kpoint 18">
       <r>   -4.3974    1.0000 </r>
       <r>    0.3519    1.0000 </r>
       <r>    3.0387    1.0000 </r>
       <r>    3.6612    1.0000 </r>
       <r>    7.4018    0.0000 </r>
       <r>    9.6846    0.0000 </r>
       <r>   10.4757    0.0000 </r>
       <r>   11.0114    0.0000 </r>
       <r>   15.6670    0.0000 </r>
       <r>   15.9039    0.0000 </r>
       <r>   16.2401    0.0000 </r>
       <r>   18.2940    0.0000 </r>
      </set>
      <set comment="kpoint 19">
       <r>   -3.6843    1.0000 </r>
       <r>   -0.8045    1.0000 </r>
       <r>    2.5372    1.0000 </r>
       <r>    3.7032    1.0000 </r>
       <r>    7.4655    0.0000 </r>
       <r>   10.2567    0.0000 </r>
       <r>   10.6940    0.0000 </r>
       <r>   11.2105    0.0000 </r>
       <r>   15.3041    0.0000 </r>
       <r>   16.0300    0.0000 </r>
       <r>   17.4768    0.0000 </r>
       <r>   17.5943    0.0000 </r>
      </set>
      <set comment="kpoint 20">
       <r>   -3.5365    1.0000 </r>
       <r>   -1.0064    1.0000 </r>
       <r>    2.2460    1.0000 </r>
       <r>    3.9359    1.0000 </r>
       <r>    7.6733    0.0000 </r>
       <r>   10.1618    0.0000 </r>
       <r>   10.3958    0.0000 </r>
       <r>   13.1097    0.0000 </r>
       <r>   13.8846    0.0000 </r>
       <r>   14.0095    0.0000 </r>
       <r>   17.1301    0.0000 </r>
       <r>   19.5495    0.0000 </r>
      </set>
      <set comment="kpoint 21">
       <r>   -4.1731    1.0000 </r>
       <r>   -0.0445    1.0000 </r>
       <r>    2.2314    1.0000 </r>
       <r>    4.3246    1.0000 </r>
       <r>    8.0554    0.0000 </r>
       <r>   10.1198    0.0000 </r>
       <r>   10.1767    0.0000 </r>
       <r>   12.2325    0.0000 </r>
       <r>   12.4278    0.0000 </r>
       <r>   15.0673    0.0000 </r>
       <r>   17.4359    0.0000 </r>
       <r>   18.4609    0.0000 </r>
      </set>
      <set comment="kpoint 22">
       <r>   -4.8759    1.0000 </r>
       <r>    1.1689    1.0000 </r>
       <r>    2.6821    1.0000 </r>
       <r>    4.7847    1.0000 </r>
       <r>    8.4659    0.0000 </r>
       <r>    9.5810    0.0000 </r>
       <r>    9.8846    0.0000 </r>
       <r>   11.2717    0.0000 </r>
       <r>   11.7468    0.0000 </r>
       <r>   16.2170    0.0000 </r>
       <r>   16.2391    0.0000 </r>
       <r>   17.4439    0.0000 </r>
      </set>
      <set comment="kpoint 23">
       <r>   -4.6780    1.0000 </r>
       <r>    1.2113    1.0000 </r>
       <r>    3.4334    1.0000 </r>
       <r>    3.4334    1.0000 </r>
       <r>    6.5042    0.0000 </r>
       <r>    8.0510    0.0000 </r>
       <r>   12.1867    0.0000 </r>
       <r>   12.1867    0.0000 </r>
       <r>   14.5226    0.0000 </r>
       <r>   15.0389    0.0000 </r>
       <r>   17.9322    0.0000 </r>
       <r>   18.9811    0.0000 </r>
      </set>
      <set comment="kpoint 24">
       <r>   -4.0768    1.0000 </r>
       <r>    0.2227    1.0000 </r>
       <r>    2.8220    1.0000 </r>
       <r>    3.2318    1.0000 </r>
       <r>    6.6917    0.0000 </r>
       <r>    7.8804    0.0000 </r>
       <r>   12.4705    0.0000 </r>
       <r>   12.6112    0.0000 </r>
       <r>   16.0248    0.0000 </r>
       <r>   16.1564    0.0000 </r>
       <r>   17.6362    0.0000 </r>
       <r>   18.3015    0.0000 </r>
      </set>
      <set comment="kpoint 25">
       <r>   -3.3429    1.0000 </r>
       <r>   -0.7629    1.0000 </r>
       <r>    2.0121    1.0000 </r>
       <r>    3.2377    1.0000 </r>
       <r>    6.8729    0.0000 </r>
       <r>    8.9912    0.0000 </r>
       <r>   12.2847    0.0000 </r>
       <r>   12.3730    0.0000 </r>
       <r>   15.9660    0.0000 </r>
       <r>   16.1598    0.0000 </r>
       <r>   17.7909    0.0000 </r>
       <r>   18.2665    0.0000 </r>
      </set>
      <set comment="kpoint 26">
       <r>   -2.9369    1.0000 </r>
       <r>   -1.2249    1.0000 </r>
       <r>    1.4714    1.0000 </r>
       <r>    3.4485    1.0000 </r>
       <r>    7.1009    0.0000 </r>
       <r>   10.7760    0.0000 </r>
       <r>   11.9776    0.0000 </r>
       <r>   12.1244    0.0000 </r>
       <r>   14.0193    0.0000 </r>
       <r>   14.0949    0.0000 </r>
       <r>   19.2227    0.0000 </r>
       <r>   19.9250    0.0000 </r>
      </set>
      <set comment="kpoint 27">
       <r>   -3.4625    1.0000 </r>
       <r>   -0.6472    1.0000 </r>
       <r>    1.4469    1.0000 </r>
       <r>    3.8365    1.0000 </r>
       <r>    7.5333    0.0000 </r>
       <r>   11.3094    0.0000 </r>
       <r>   11.6201    0.0000 </r>
       <r>   12.3419    0.0000 </r>
       <r>   12.7041    0.0000 </r>
       <r>   13.0787    0.0000 </r>
       <r>   19.1354    0.0000 </r>
       <r>   19.7190    0.0000 </r>
      </set>
      <set comment="kpoint 28">
       <r>   -3.5363    1.0000 </r>
       <r>   -0.5217    1.0000 </r>
       <r>    2.9764    1.0000 </r>
       <r>    2.9764    1.0000 </r>
       <r>    6.2325    0.0002 </r>
       <r>    6.9641    0.0000 </r>
       <r>   14.0159    0.0000 </r>
       <r>   14.0159    0.0000 </r>
       <r>   16.3649    0.0000 </r>
       <r>   16.6059    0.0000 </r>
       <r>   18.0779    0.0000 </r>
       <r>   18.0779    0.0000 </r>
      </set>
      <set comment="kpoint 29">
       <r>   -2.8217    1.0000 </r>
       <r>   -1.3479    1.0000 </r>
       <r>    2.4073    1.0000 </r>
       <r>    2.9284    1.0000 </r>
       <r>    6.4683    0.0000 </r>
       <r>    7.2137    0.0000 </r>
       <r>   14.2652    0.0000 </r>
       <r>   14.3420    0.0000 </r>
       <r>   16.3058    0.0000 </r>
       <r>   16.3966    0.0000 </r>
       <r>   17.8187    0.0000 </r>
       <r>   18.2352    0.0000 </r>
      </set>
      <set comment="kpoint 30">
       <r>   -2.3610    1.0000 </r>
       <r>   -1.7578    1.0000 </r>
       <r>    1.6462    1.0000 </r>
       <r>    3.0923    1.0000 </r>
       <r>    6.6784    0.0000 </r>
       <r>    8.7637    0.0000 </r>
       <r>   13.6122    0.0000 </r>
       <r>   14.1871    0.0000 </r>
       <r>   14.1879    0.0000 </r>
       <r>   14.6428    0.0000 </r>
       <r>   19.7167    0.0000 </r>
       <r>   19.8975    0.0000 </r>
      </set>
      <set comment="kpoint 31">
       <r>   -2.1309    1.0000 </r>
       <r>   -2.1309    1.0000 </r>
       <r>    2.8215    1.0000 </r>
       <r>    2.8215    1.0000 </r>
       <r>    6.3662    0.0000 </r>
       <r>    6.3662    0.0000 </r>
       <r>   15.5518    0.0000 </r>
       <r>   15.5518    0.0000 </r>
       <r>   16.5227    0.0000 </r>
       <r>   16.5229    0.0000 </r>
       <r>   18.0839    0.0000 </r>
       <r>   18.1838    0.0000 </r>
      </set>
      <set comment="kpoint 32">
       <r>   -5.3543    1.0000 </r>
       <r>    2.2539    1.0000 </r>
       <r>    3.5827    1.0000 </r>
       <r>    4.6603    1.0000 </r>
       <r>    7.9601    0.0000 </r>
       <r>    9.2642    0.0000 </r>
       <r>   10.2132    0.0000 </r>
       <r>   10.2343    0.0000 </r>
       <r>   12.7721    0.0000 </r>
       <r>   14.3531    0.0000 </r>
       <r>   16.0241    0.0000 </r>
       <r>   17.1797    0.0000 </r>
      </set>
      <set comment="kpoint 33">
       <r>   -4.7548    1.0000 </r>
       <r>    0.8714    1.0000 </r>
       <r>    2.9989    1.0000 </r>
       <r>    4.2947    1.0000 </r>
       <r>    8.3000    0.0000 </r>
       <r>    9.1821    0.0000 </r>
       <r>   10.3067    0.0000 </r>
       <r>   10.6997    0.0000 </r>
       <r>   13.4285    0.0000 </r>
       <r>   15.9404    0.0000 </r>
       <r>   16.1594    0.0000 </r>
       <r>   17.9563    0.0000 </r>
      </set>
      <set comment="kpoint 34">
       <r>   -4.0248    1.0000 </r>
       <r>   -0.4616    1.0000 </r>
       <r>    2.7651    1.0000 </r>
       <r>    3.9538    1.0000 </r>
       <r>    8.3383    0.0000 </r>
       <r>    8.8927    0.0000 </r>
       <r>   10.6266    0.0000 </r>
       <r>   11.6277    0.0000 </r>
       <r>   14.7269    0.0000 </r>
       <r>   15.0922    0.0000 </r>
       <r>   16.9618    0.0000 </r>
       <r>   18.1175    0.0000 </r>
      </set>
      <set comment="kpoint 35">
       <r>   -3.5794    1.0000 </r>
       <r>   -1.1212    1.0000 </r>
       <r>    2.7038    1.0000 </r>
       <r>    3.8199    1.0000 </r>
       <r>    8.3509    0.0000 </r>
       <r>    8.7292    0.0000 </r>
       <r>   10.5898    0.0000 </r>
       <r>   13.3459    0.0000 </r>
       <r>   13.3890    0.0000 </r>
       <r>   15.6898    0.0000 </r>
       <r>   17.0481    0.0000 </r>
       <r>   17.5194    0.0000 </r>
      </set>
      <set comment="kpoint 36">
       <r>   -4.5316    1.0000 </r>
       <r>    0.8653    1.0000 </r>
       <r>    2.8698    1.0000 </r>
       <r>    3.5747    1.0000 </r>
       <r>    7.4016    0.0000 </r>
       <r>    8.6813    0.0000 </r>
       <r>   10.7558    0.0000 </r>
       <r>   12.0794    0.0000 </r>
       <r>   14.4305    0.0000 </r>
       <r>   16.2194    0.0000 </r>
       <r>   17.0591    0.0000 </r>
       <r>   18.3503    0.0000 </r>
      </set>
      <set comment="kpoint 37">
       <r>   -3.8264    1.0000 </r>
       <r>   -0.2149    1.0000 </r>
       <r>    2.2611    1.0000 </r>
       <r>    3.2554    1.0000 </r>
       <r>    7.7821    0.0000 </r>
       <r>    9.3677    0.0000 </r>
       <r>   10.3817    0.0000 </r>
       <r>   12.4708    0.0000 </r>
       <r>   15.5033    0.0000 </r>
       <r>   15.5335    0.0000 </r>
       <r>   18.0121    0.0000 </r>
       <r>   18.3502    0.0000 </r>
      </set>
      <set comment="kpoint 38">
       <r>   -3.1935    1.0000 </r>
       <r>   -1.0549    1.0000 </r>
       <r>    1.8588    1.0000 </r>
       <r>    3.2012    1.0000 </r>
       <r>    7.9619    0.0000 </r>
       <r>    9.9545    0.0000 </r>
       <r>   11.0776    0.0000 </r>
       <r>   12.3989    0.0000 </r>
       <r>   13.4803    0.0000 </r>
       <r>   16.3744    0.0000 </r>
       <r>   17.4575    0.0000 </r>
       <r>   18.5741    0.0000 </r>
      </set>
      <set comment="kpoint 39">
       <r>   -3.3898    1.0000 </r>
       <r>   -0.8025    1.0000 </r>
       <r>    1.7142    1.0000 </r>
       <r>    3.4350    1.0000 </r>
       <r>    8.2954    0.0000 </r>
       <r>    9.7001    0.0000 </r>
       <r>   11.5069    0.0000 </r>
       <r>   12.2840    0.0000 </r>
       <r>   13.1425    0.0000 </r>
       <r>   14.6906    0.0000 </r>
       <r>   18.2958    0.0000 </r>
       <r>   19.5416    0.0000 </r>
      </set>
      <set comment="kpoint 40">
       <r>   -4.1081    1.0000 </r>
       <r>    0.1265    1.0000 </r>
       <r>    2.0123    1.0000 </r>
       <r>    3.8642    1.0000 </r>
       <r>    8.7744    0.0000 </r>
       <r>    9.2530    0.0000 </r>
       <r>   10.2998    0.0000 </r>
       <r>   11.8079    0.0000 </r>
       <r>   13.4887    0.0000 </r>
       <r>   15.2377    0.0000 </r>
       <r>   18.2851    0.0000 </r>
       <r>   18.6356    0.0000 </r>
      </set>
      <set comment="kpoint 41">
       <r>   -3.4214    1.0000 </r>
       <r>   -0.6070    1.0000 </r>
       <r>    2.4672    1.0000 </r>
       <r>    2.7883    1.0000 </r>
       <r>    7.1180    0.0000 </r>
       <r>    7.7112    0.0000 </r>
       <r>   12.2887    0.0000 </r>
       <r>   14.0021    0.0000 </r>
       <r>   15.9486    0.0000 </r>
       <r>   16.2604    0.0000 </r>
       <r>   18.0282    0.0000 </r>
       <r>   18.5240    0.0000 </r>
      </set>
      <set comment="kpoint 42">
       <r>   -2.7000    1.0000 </r>
       <r>   -1.3677    1.0000 </r>
       <r>    1.7852    1.0000 </r>
       <r>    2.6992    1.0000 </r>
       <r>    7.4682    0.0000 </r>
       <r>    8.8929    0.0000 </r>
       <r>   11.8944    0.0000 </r>
       <r>   13.6502    0.0000 </r>
       <r>   14.4405    0.0000 </r>
       <r>   16.5075    0.0000 </r>
       <r>   17.8323    0.0000 </r>
       <r>   19.8735    0.0000 </r>
      </set>
      <set comment="kpoint 43">
       <r>   -2.7093    1.0000 </r>
       <r>   -1.3382    1.0000 </r>
       <r>    1.3800    1.0000 </r>
       <r>    2.9627    1.0000 </r>
       <r>    7.7896    0.0000 </r>
       <r>   10.7105    0.0000 </r>
       <r>   11.4925    0.0000 </r>
       <r>   11.8309    0.0000 </r>
       <r>   13.9205    0.0000 </r>
       <r>   15.0072    0.0000 </r>
       <r>   19.3158    0.0000 </r>
       <r>   20.4334    0.0000 </r>
      </set>
      <set comment="kpoint 44">
       <r>   -2.0806    1.0000 </r>
       <r>   -2.0806    1.0000 </r>
       <r>    2.4263    1.0000 </r>
       <r>    2.4263    1.0000 </r>
       <r>    7.2010    0.0000 </r>
       <r>    7.2010    0.0000 </r>
       <r>   14.0020    0.0000 </r>
       <r>   14.0020    0.0000 </r>
       <r>   16.0835    0.0000 </r>
       <r>   16.0835    0.0000 </r>
       <r>   18.2945    0.0000 </r>
       <r>   18.2945    0.0000 </r>
      </set>
      <set comment="kpoint 45">
       <r>   -3.1099    1.0000 </r>
       <r>   -0.8990    1.0000 </r>
       <r>    1.7264    1.0000 </r>
       <r>    2.6935    1.0000 </r>
       <r>    8.9976    0.0000 </r>
       <r>    9.3946    0.0000 </r>
       <r>    9.9867    0.0000 </r>
       <r>   13.3183    0.0000 </r>
       <r>   13.9723    0.0000 </r>
       <r>   15.6958    0.0000 </r>
       <r>   18.7513    0.0000 </r>
       <r>   19.9163    0.0000 </r>
      </set>
      <set comment="kpoint 46">
       <r>   -2.6114    1.0000 </r>
       <r>   -1.3983    1.0000 </r>
       <r>    1.5731    1.0000 </r>
       <r>    2.4486    1.0000 </r>
       <r>    9.2909    0.0000 </r>
       <r>    9.5674    0.0000 </r>
       <r>   10.9771    0.0000 </r>
       <r>   11.3834    0.0000 </r>
       <r>   14.4122    0.0000 </r>
       <r>   16.6645    0.0000 </r>
       <r>   17.6991    0.0000 </r>
       <r>   19.8888    0.0000 </r>
      </set>
      <set comment="kpoint 47">
       <r>   -1.9923    1.0000 </r>
       <r>   -1.9923    1.0000 </r>
       <r>    1.9292    1.0000 </r>
       <r>    1.9292    1.0000 </r>
       <r>    9.0405    0.0000 </r>
       <r>    9.0405    0.0000 </r>
       <r>   11.4770    0.0000 </r>
       <r>   11.4770    0.0000 </r>
       <r>   16.0657    0.0000 </r>
       <r>   16.0657    0.0000 </r>
       <r>   18.4558    0.0000 </r>
       <r>   18.4558    0.0000 </r>
      </set>
     </set>
     <set comment="spin 2">
      <set comment="kpoint 1">
       <r>   -6.1990    1.0000 </r>
       <r>    5.6156    0.5455 </r>
       <r>    5.6156    0.5455 </r>
       <r>    5.6156    0.5455 </r>
       <r>    8.1736    0.0000 </r>
       <r>    8.1736    0.0000 </r>
       <r>    8.1736    0.0000 </r>
       <r>    8.7487    0.0000 </r>
       <r>   13.3259    0.0000 </r>
       <r>   13.3259    0.0000 </r>
       <r>   13.4886    0.0000 </r>
       <r>   16.7984    0.0000 </r>
      </set>
      <set comment="kpoint 2">
       <r>   -6.0704    1.0000 </r>
       <r>    4.4736    1.0000 </r>
       <r>    5.4219    1.0507 </r>
       <r>    5.4219    1.0507 </r>
       <r>    8.1388    0.0000 </r>
       <r>    8.4593    0.0000 </r>
       <r>    8.4593    0.0000 </r>
       <r>    9.7191    0.0000 </r>
       <r>   12.9761    0.0000 </r>
       <r>   12.9761    0.0000 </r>
       <r>   14.0187    0.0000 </r>
       <r>   16.3784    0.0000 </r>
      </set>
      <set comment="kpoint 3">
       <r>   -5.6910    1.0000 </r>
       <r>    2.6338    1.0000 </r>
       <r>    5.0483    0.9995 </r>
       <r>    5.0483    0.9995 </r>
       <r>    7.7681    0.0000 </r>
       <r>    8.9611    0.0000 </r>
       <r>    8.9611    0.0000 </r>
       <r>   11.4934    0.0000 </r>
       <r>   12.6652    0.0000 </r>
       <r>   12.6652    0.0000 </r>
       <r>   14.6887    0.0000 </r>
       <r>   16.4710    0.0000 </r>
      </set>
      <set comment="kpoint 4">
       <r>   -5.0877    1.0000 </r>
       <r>    0.8758    1.0000 </r>
       <r>    4.7182    1.0000 </r>
       <r>    4.7182    1.0000 </r>
       <r>    7.4042    0.0000 </r>
       <r>    9.1417    0.0000 </r>
       <r>    9.1417    0.0000 </r>
       <r>   13.1148    0.0000 </r>
       <r>   13.1908    0.0000 </r>
       <r>   13.1908    0.0000 </r>
       <r>   14.4357    0.0000 </r>
       <r>   18.3825    0.0000 </r>
      </set>
      <set comment="kpoint 5">
       <r>   -4.3579    1.0000 </r>
       <r>   -0.5724    1.0000 </r>
       <r>    4.5084    1.0000 </r>
       <r>    4.5084    1.0000 </r>
       <r>    7.1641    0.0000 </r>
       <r>    9.0373    0.0000 </r>
       <r>    9.0373    0.0000 </r>
       <r>   13.4183    0.0000 </r>
       <r>   14.5529    0.0000 </r>
       <r>   14.5529    0.0000 </r>
       <r>   15.5265    0.0000 </r>
       <r>   18.6873    0.0000 </r>
      </set>
      <set comment="kpoint 6">
       <r>   -3.9203    1.0000 </r>
       <r>   -1.2529    1.0000 </r>
       <r>    4.4375    1.0000 </r>
       <r>    4.4375    1.0000 </r>
       <r>    7.0818    0.0000 </r>
       <r>    8.9661    0.0000 </r>
       <r>    8.9661    0.0000 </r>
       <r>   13.3152    0.0000 </r>
       <r>   16.1114    0.0000 </r>
       <r>   16.1116    0.0000 </r>
       <r>   16.7944    0.0000 </r>
       <r>   16.8362    0.0000 </r>
      </set>
      <set comment="kpoint 7">
       <r>   -6.0273    1.0000 </r>
       <r>    4.6599    1.0000 </r>
       <r>    5.0544    0.9994 </r>
       <r>    5.0544    0.9994 </r>
       <r>    7.8015    0.0000 </r>
       <r>    8.9457    0.0000 </r>
       <r>    8.9457    0.0000 </r>
       <r>    9.6035    0.0000 </r>
       <r>   12.3532    0.0000 </r>
       <r>   13.5168    0.0000 </r>
       <r>   14.2006    0.0000 </r>
       <r>   17.1000    0.0000 </r>
      </set>
      <set comment="kpoint 8">
       <r>   -5.7302    1.0000 </r>
       <r>    3.1742    1.0000 </r>
       <r>    4.6280    1.0000 </r>
       <r>    4.7857    1.0000 </r>
       <r>    7.8553    0.0000 </r>
       <r>    8.9545    0.0000 </r>
       <r>    9.5894    0.0000 </r>
       <r>   10.5283    0.0000 </r>
       <r>   12.3086    0.0000 </r>
       <r>   13.5065    0.0000 </r>
       <r>   15.0968    0.0000 </r>
       <r>   16.7073    0.0000 </r>
      </set>
      <set comment="kpoint 9">
       <r>   -5.1970    1.0000 </r>
       <r>    1.4435    1.0000 </r>
       <r>    4.3137    1.0000 </r>
       <r>    4.3579    1.0000 </r>
       <r>    7.9629    0.0000 </r>
       <r>    8.9581    0.0000 </r>
       <r>    9.8763    0.0000 </r>
       <r>   10.9175    0.0000 </r>
       <r>   13.7381    0.0000 </r>
       <r>   13.8859    0.0000 </r>
       <r>   15.1042    0.0000 </r>
       <r>   17.8365    0.0000 </r>
      </set>
      <set comment="kpoint 10">
       <r>   -4.4885    1.0000 </r>
       <r>   -0.1005    1.0000 </r>
       <r>    3.9528    1.0000 </r>
       <r>    4.1673    1.0000 </r>
       <r>    7.8059    0.0000 </r>
       <r>    8.9461    0.0000 </r>
       <r>    9.7128    0.0000 </r>
       <r>   11.9622    0.0000 </r>
       <r>   14.5206    0.0000 </r>
       <r>   15.0965    0.0000 </r>
       <r>   15.6910    0.0000 </r>
       <r>   18.7764    0.0000 </r>
      </set>
      <set comment="kpoint 11">
       <r>   -3.8656    1.0000 </r>
       <r>   -1.1135    1.0000 </r>
       <r>    3.6683    1.0000 </r>
       <r>    4.1980    1.0000 </r>
       <r>    7.7125    0.0000 </r>
       <r>    8.9266    0.0000 </r>
       <r>    9.4560    0.0000 </r>
       <r>   13.3546    0.0000 </r>
       <r>   14.4693    0.0000 </r>
       <r>   16.0493    0.0000 </r>
       <r>   16.9310    0.0000 </r>
       <r>   17.0555    0.0000 </r>
      </set>
      <set comment="kpoint 12">
       <r>   -4.0275    1.0000 </r>
       <r>   -0.8713    1.0000 </r>
       <r>    3.5444    1.0000 </r>
       <r>    4.3927    1.0000 </r>
       <r>    7.7673    0.0000 </r>
       <r>    9.0608    0.0000 </r>
       <r>    9.3031    0.0000 </r>
       <r>   13.6056    0.0000 </r>
       <r>   14.1731    0.0000 </r>
       <r>   14.8295    0.0000 </r>
       <r>   16.6512    0.0000 </r>
       <r>   17.6697    0.0000 </r>
      </set>
      <set comment="kpoint 13">
       <r>   -4.7382    1.0000 </r>
       <r>    0.3838    1.0000 </r>
       <r>    3.6067    1.0000 </r>
       <r>    4.7205    1.0000 </r>
       <r>    7.9667    0.0000 </r>
       <r>    9.2261    0.0000 </r>
       <r>    9.3042    0.0000 </r>
       <r>   12.5456    0.0000 </r>
       <r>   12.6692    0.0000 </r>
       <r>   14.9028    0.0000 </r>
       <r>   15.8050    0.0000 </r>
       <r>   18.2416    0.0000 </r>
      </set>
      <set comment="kpoint 14">
       <r>   -5.4004    1.0000 </r>
       <r>    2.0032    1.0000 </r>
       <r>    3.8820    1.0000 </r>
       <r>    5.1189    0.9981 </r>
       <r>    8.2744    0.0000 </r>
       <r>    8.9733    0.0000 </r>
       <r>    9.2995    0.0000 </r>
       <r>   11.4856    0.0000 </r>
       <r>   11.9764    0.0000 </r>
       <r>   14.1460    0.0000 </r>
       <r>   15.3078    0.0000 </r>
       <r>   17.1316    0.0000 </r>
      </set>
      <set comment="kpoint 15">
       <r>   -5.8577    1.0000 </r>
       <r>    3.5888    1.0000 </r>
       <r>    4.4849    1.0000 </r>
       <r>    5.4403    1.0511 </r>
       <r>    8.5274    0.0000 </r>
       <r>    8.5277    0.0000 </r>
       <r>    8.7053    0.0000 </r>
       <r>   10.6648    0.0000 </r>
       <r>   12.2331    0.0000 </r>
       <r>   13.2312    0.0000 </r>
       <r>   14.7572    0.0000 </r>
       <r>   16.6422    0.0000 </r>
      </set>
      <set comment="kpoint 16">
       <r>   -5.5160    1.0000 </r>
       <r>    2.9809    1.0000 </r>
       <r>    4.1617    1.0000 </r>
       <r>    4.1617    1.0000 </r>
       <r>    7.0920    0.0000 </r>
       <r>    9.4687    0.0000 </r>
       <r>   10.4574    0.0000 </r>
       <r>   10.4574    0.0000 </r>
       <r>   12.5544    0.0000 </r>
       <r>   14.0889    0.0000 </r>
       <r>   15.8965    0.0000 </r>
       <r>   17.9653    0.0000 </r>
      </set>
      <set comment="kpoint 17">
       <r>   -5.0588    1.0000 </r>
       <r>    1.7586    1.0000 </r>
       <r>    3.6592    1.0000 </r>
       <r>    3.8194    1.0000 </r>
       <r>    7.1877    0.0000 </r>
       <r>    9.0604    0.0000 </r>
       <r>   10.7072    0.0000 </r>
       <r>   11.0456    0.0000 </r>
       <r>   14.0200    0.0000 </r>
       <r>   14.5497    0.0000 </r>
       <r>   16.6034    0.0000 </r>
       <r>   18.0830    0.0000 </r>
      </set>
      <set comment="kpoint 18">
       <r>   -4.3970    1.0000 </r>
       <r>    0.3523    1.0000 </r>
       <r>    3.0391    1.0000 </r>
       <r>    3.6616    1.0000 </r>
       <r>    7.4025    0.0000 </r>
       <r>    9.6853    0.0000 </r>
       <r>   10.4762    0.0000 </r>
       <r>   11.0124    0.0000 </r>
       <r>   15.6679    0.0000 </r>
       <r>   15.9044    0.0000 </r>
       <r>   16.2394    0.0000 </r>
       <r>   18.2950    0.0000 </r>
      </set>
      <set comment="kpoint 19">
       <r>   -3.6839    1.0000 </r>
       <r>   -0.8041    1.0000 </r>
       <r>    2.5377    1.0000 </r>
       <r>    3.7036    1.0000 </r>
       <r>    7.4662    0.0000 </r>
       <r>   10.2569    0.0000 </r>
       <r>   10.6952    0.0000 </r>
       <r>   11.2111    0.0000 </r>
       <r>   15.3038    0.0000 </r>
       <r>   16.0307    0.0000 </r>
       <r>   17.4925    0.0000 </r>
       <r>   17.5795    0.0000 </r>
      </set>
      <set comment="kpoint 20">
       <r>   -3.5362    1.0000 </r>
       <r>   -1.0060    1.0000 </r>
       <r>    2.2465    1.0000 </r>
       <r>    3.9362    1.0000 </r>
       <r>    7.6741    0.0000 </r>
       <r>   10.1620    0.0000 </r>
       <r>   10.3970    0.0000 </r>
       <r>   13.1100    0.0000 </r>
       <r>   13.8847    0.0000 </r>
       <r>   14.0103    0.0000 </r>
       <r>   17.1299    0.0000 </r>
       <r>   19.5382    0.0000 </r>
      </set>
      <set comment="kpoint 21">
       <r>   -4.1727    1.0000 </r>
       <r>   -0.0442    1.0000 </r>
       <r>    2.2319    1.0000 </r>
       <r>    4.3248    1.0000 </r>
       <r>    8.0563    0.0000 </r>
       <r>   10.1211    0.0000 </r>
       <r>   10.1767    0.0000 </r>
       <r>   12.2327    0.0000 </r>
       <r>   12.4287    0.0000 </r>
       <r>   15.0676    0.0000 </r>
       <r>   17.4357    0.0000 </r>
       <r>   18.4615    0.0000 </r>
      </set>
      <set comment="kpoint 22">
       <r>   -4.8754    1.0000 </r>
       <r>    1.1691    1.0000 </r>
       <r>    2.6826    1.0000 </r>
       <r>    4.7848    1.0000 </r>
       <r>    8.4670    0.0000 </r>
       <r>    9.5823    0.0000 </r>
       <r>    9.8844    0.0000 </r>
       <r>   11.2721    0.0000 </r>
       <r>   11.7479    0.0000 </r>
       <r>   16.2167    0.0000 </r>
       <r>   16.2396    0.0000 </r>
       <r>   17.4433    0.0000 </r>
      </set>
      <set comment="kpoint 23">
       <r>   -4.6776    1.0000 </r>
       <r>    1.2115    1.0000 </r>
       <r>    3.4339    1.0000 </r>
       <r>    3.4339    1.0000 </r>
       <r>    6.5049    0.0000 </r>
       <r>    8.0517    0.0000 </r>
       <r>   12.1874    0.0000 </r>
       <r>   12.1874    0.0000 </r>
       <r>   14.5229    0.0000 </r>
       <r>   15.0400    0.0000 </r>
       <r>   17.9305    0.0000 </r>
       <r>   18.9824    0.0000 </r>
      </set>
      <set comment="kpoint 24">
       <r>   -4.0764    1.0000 </r>
       <r>    0.2230    1.0000 </r>
       <r>    2.8226    1.0000 </r>
       <r>    3.2323    1.0000 </r>
       <r>    6.6922    0.0000 </r>
       <r>    7.8810    0.0000 </r>
       <r>   12.4711    0.0000 </r>
       <r>   12.6119    0.0000 </r>
       <r>   16.0257    0.0000 </r>
       <r>   16.1567    0.0000 </r>
       <r>   17.6360    0.0000 </r>
       <r>   18.3028    0.0000 </r>
      </set>
      <set comment="kpoint 25">
       <r>   -3.3426    1.0000 </r>
       <r>   -0.7626    1.0000 </r>
       <r>    2.0127    1.0000 </r>
       <r>    3.2382    1.0000 </r>
       <r>    6.8735    0.0000 </r>
       <r>    8.9916    0.0000 </r>
       <r>   12.2851    0.0000 </r>
       <r>   12.3740    0.0000 </r>
       <r>   15.9661    0.0000 </r>
       <r>   16.1605    0.0000 </r>
       <r>   17.7917    0.0000 </r>
       <r>   18.2666    0.0000 </r>
      </set>
      <set comment="kpoint 26">
       <r>   -2.9366    1.0000 </r>
       <r>   -1.2245    1.0000 </r>
       <r>    1.4720    1.0000 </r>
       <r>    3.4490    1.0000 </r>
       <r>    7.1016    0.0000 </r>
       <r>   10.7761    0.0000 </r>
       <r>   11.9788    0.0000 </r>
       <r>   12.1249    0.0000 </r>
       <r>   14.0195    0.0000 </r>
       <r>   14.0956    0.0000 </r>
       <r>   19.2215    0.0000 </r>
       <r>   19.9825    0.0000 </r>
      </set>
      <set comment="kpoint 27">
       <r>   -3.4621    1.0000 </r>
       <r>   -0.6469    1.0000 </r>
       <r>    1.4475    1.0000 </r>
       <r>    3.8369    1.0000 </r>
       <r>    7.5341    0.0000 </r>
       <r>   11.3107    0.0000 </r>
       <r>   11.6193    0.0000 </r>
       <r>   12.3424    0.0000 </r>
       <r>   12.7049    0.0000 </r>
       <r>   13.0795    0.0000 </r>
       <r>   19.1351    0.0000 </r>
       <r>   19.7191    0.0000 </r>
      </set>
      <set comment="kpoint 28">
       <r>   -3.5360    1.0000 </r>
       <r>   -0.5215    1.0000 </r>
       <r>    2.9770    1.0000 </r>
       <r>    2.9770    1.0000 </r>
       <r>    6.2330    0.0002 </r>
       <r>    6.9647    0.0000 </r>
       <r>   14.0166    0.0000 </r>
       <r>   14.0166    0.0000 </r>
       <r>   16.3660    0.0000 </r>
       <r>   16.6058    0.0000 </r>
       <r>   18.0783    0.0000 </r>
       <r>   18.0809    0.0000 </r>
      </set>
      <set comment="kpoint 29">
       <r>   -2.8213    1.0000 </r>
       <r>   -1.3476    1.0000 </r>
       <r>    2.4079    1.0000 </r>
       <r>    2.9290    1.0000 </r>
       <r>    6.4688    0.0000 </r>
       <r>    7.2142    0.0000 </r>
       <r>   14.2661    0.0000 </r>
       <r>   14.3425    0.0000 </r>
       <r>   16.3060    0.0000 </r>
       <r>   16.3971    0.0000 </r>
       <r>   17.8198    0.0000 </r>
       <r>   18.2380    0.0000 </r>
      </set>
      <set comment="kpoint 30">
       <r>   -2.3606    1.0000 </r>
       <r>   -1.7574    1.0000 </r>
       <r>    1.6468    1.0000 </r>
       <r>    3.0928    1.0000 </r>
       <r>    6.6790    0.0000 </r>
       <r>    8.7642    0.0000 </r>
       <r>   13.6134    0.0000 </r>
       <r>   14.1869    0.0000 </r>
       <r>   14.1887    0.0000 </r>
       <r>   14.6433    0.0000 </r>
       <r>   19.7107    0.0000 </r>
       <r>   19.8718    0.0000 </r>
      </set>
      <set comment="kpoint 31">
       <r>   -2.1305    1.0000 </r>
       <r>   -2.1305    1.0000 </r>
       <r>    2.8221    1.0000 </r>
       <r>    2.8221    1.0000 </r>
       <r>    6.3668    0.0000 </r>
       <r>    6.3668    0.0000 </r>
       <r>   15.5529    0.0000 </r>
       <r>   15.5529    0.0000 </r>
       <r>   16.5226    0.0000 </r>
       <r>   16.5226    0.0000 </r>
       <r>   18.0691    0.0000 </r>
       <r>   18.1207    0.0000 </r>
      </set>
      <set comment="kpoint 32">
       <r>   -5.3539    1.0000 </r>
       <r>    2.2541    1.0000 </r>
       <r>    3.5831    1.0000 </r>
       <r>    4.6605    1.0000 </r>
       <r>    7.9608    0.0000 </r>
       <r>    9.2652    0.0000 </r>
       <r>   10.2139    0.0000 </r>
       <r>   10.2349    0.0000 </r>
       <r>   12.7729    0.0000 </r>
       <r>   14.3539    0.0000 </r>
       <r>   16.0231    0.0000 </r>
       <r>   17.1794    0.0000 </r>
      </set>
      <set comment="kpoint 33">
       <r>   -4.7543    1.0000 </r>
       <r>    0.8717    1.0000 </r>
       <r>    2.9994    1.0000 </r>
       <r>    4.2949    1.0000 </r>
       <r>    8.3007    0.0000 </r>
       <r>    9.1830    0.0000 </r>
       <r>   10.3074    0.0000 </r>
       <r>   10.7003    0.0000 </r>
       <r>   13.4293    0.0000 </r>
       <r>   15.9399    0.0000 </r>
       <r>   16.1600    0.0000 </r>
       <r>   17.9558    0.0000 </r>
      </set>
      <set comment="kpoint 34">
       <r>   -4.0244    1.0000 </r>
       <r>   -0.4612    1.0000 </r>
       <r>    2.7655    1.0000 </r>
       <r>    3.9542    1.0000 </r>
       <r>    8.3390    0.0000 </r>
       <r>    8.8935    0.0000 </r>
       <r>   10.6275    0.0000 </r>
       <r>   11.6281    0.0000 </r>
       <r>   14.7274    0.0000 </r>
       <r>   15.0921    0.0000 </r>
       <r>   16.9619    0.0000 </r>
       <r>   18.1179    0.0000 </r>
      </set>
      <set comment="kpoint 35">
       <r>   -3.5790    1.0000 </r>
       <r>   -1.1208    1.0000 </r>
       <r>    2.7042    1.0000 </r>
       <r>    3.8203    1.0000 </r>
       <r>    8.3516    0.0000 </r>
       <r>    8.7299    0.0000 </r>
       <r>   10.5907    0.0000 </r>
       <r>   13.3459    0.0000 </r>
       <r>   13.3896    0.0000 </r>
       <r>   15.6900    0.0000 </r>
       <r>   17.0484    0.0000 </r>
       <r>   17.5198    0.0000 </r>
      </set>
      <set comment="kpoint 36">
       <r>   -4.5312    1.0000 </r>
       <r>    0.8656    1.0000 </r>
       <r>    2.8703    1.0000 </r>
       <r>    3.5752    1.0000 </r>
       <r>    7.4022    0.0000 </r>
       <r>    8.6820    0.0000 </r>
       <r>   10.7565    0.0000 </r>
       <r>   12.0800    0.0000 </r>
       <r>   14.4313    0.0000 </r>
       <r>   16.2200    0.0000 </r>
       <r>   17.0587    0.0000 </r>
       <r>   18.3499    0.0000 </r>
      </set>
      <set comment="kpoint 37">
       <r>   -3.8260    1.0000 </r>
       <r>   -0.2146    1.0000 </r>
       <r>    2.2616    1.0000 </r>
       <r>    3.2559    1.0000 </r>
       <r>    7.7826    0.0000 </r>
       <r>    9.3682    0.0000 </r>
       <r>   10.3825    0.0000 </r>
       <r>   12.4714    0.0000 </r>
       <r>   15.5041    0.0000 </r>
       <r>   15.5337    0.0000 </r>
       <r>   18.0116    0.0000 </r>
       <r>   18.3503    0.0000 </r>
      </set>
      <set comment="kpoint 38">
       <r>   -3.1931    1.0000 </r>
       <r>   -1.0546    1.0000 </r>
       <r>    1.8594    1.0000 </r>
       <r>    3.2017    1.0000 </r>
       <r>    7.9625    0.0000 </r>
       <r>    9.9550    0.0000 </r>
       <r>   11.0782    0.0000 </r>
       <r>   12.3996    0.0000 </r>
       <r>   13.4808    0.0000 </r>
       <r>   16.3748    0.0000 </r>
       <r>   17.4580    0.0000 </r>
       <r>   18.5738    0.0000 </r>
      </set>
      <set comment="kpoint 39">
       <r>   -3.3894    1.0000 </r>
       <r>   -0.8021    1.0000 </r>
       <r>    1.7148    1.0000 </r>
       <r>    3.4354    1.0000 </r>
       <r>    8.2961    0.0000 </r>
       <r>    9.7006    0.0000 </r>
       <r>   11.5075    0.0000 </r>
       <r>   12.2843    0.0000 </r>
       <r>   13.1432    0.0000 </r>
       <r>   14.6912    0.0000 </r>
       <r>   18.2955    0.0000 </r>
       <r>   19.5421    0.0000 </r>
      </set>
      <set comment="kpoint 40">
       <r>   -4.1077    1.0000 </r>
       <r>    0.1268    1.0000 </r>
       <r>    2.0128    1.0000 </r>
       <r>    3.8645    1.0000 </r>
       <r>    8.7752    0.0000 </r>
       <r>    9.2536    0.0000 </r>
       <r>   10.3005    0.0000 </r>
       <r>   11.8082    0.0000 </r>
       <r>   13.4895    0.0000 </r>
       <r>   15.2380    0.0000 </r>
       <r>   18.2910    0.0000 </r>
       <r>   18.6396    0.0000 </r>
      </set>
      <set comment="kpoint 41">
       <r>   -3.4210    1.0000 </r>
       <r>   -0.6067    1.0000 </r>
       <r>    2.4677    1.0000 </r>
       <r>    2.7889    1.0000 </r>
       <r>    7.1186    0.0000 </r>
       <r>    7.7118    0.0000 </r>
       <r>   12.2894    0.0000 </r>
       <r>   14.0027    0.0000 </r>
       <r>   15.9489    0.0000 </r>
       <r>   16.2611    0.0000 </r>
       <r>   18.0291    0.0000 </r>
       <r>   18.5255    0.0000 </r>
      </set>
      <set comment="kpoint 42">
       <r>   -2.6997    1.0000 </r>
       <r>   -1.3674    1.0000 </r>
       <r>    1.7859    1.0000 </r>
       <r>    2.6998    1.0000 </r>
       <r>    7.4688    0.0000 </r>
       <r>    8.8933    0.0000 </r>
       <r>   11.8951    0.0000 </r>
       <r>   13.6510    0.0000 </r>
       <r>   14.4407    0.0000 </r>
       <r>   16.5080    0.0000 </r>
       <r>   17.8329    0.0000 </r>
       <r>   19.8740    0.0000 </r>
      </set>
      <set comment="kpoint 43">
       <r>   -2.7089    1.0000 </r>
       <r>   -1.3379    1.0000 </r>
       <r>    1.3806    1.0000 </r>
       <r>    2.9632    1.0000 </r>
       <r>    7.7902    0.0000 </r>
       <r>   10.7104    0.0000 </r>
       <r>   11.4936    0.0000 </r>
       <r>   11.8315    0.0000 </r>
       <r>   13.9208    0.0000 </r>
       <r>   15.0079    0.0000 </r>
       <r>   19.3164    0.0000 </r>
       <r>   20.4318    0.0000 </r>
      </set>
      <set comment="kpoint 44">
       <r>   -2.0803    1.0000 </r>
       <r>   -2.0802    1.0000 </r>
       <r>    2.4268    1.0000 </r>
       <r>    2.4268    1.0000 </r>
       <r>    7.2015    0.0000 </r>
       <r>    7.2015    0.0000 </r>
       <r>   14.0027    0.0000 </r>
       <r>   14.0027    0.0000 </r>
       <r>   16.0838    0.0000 </r>
       <r>   16.0838    0.0000 </r>
       <r>   18.2953    0.0000 </r>
       <r>   18.2954    0.0000 </r>
      </set>
      <set comment="kpoint 45">
       <r>   -3.1095    1.0000 </r>
       <r>   -0.8987    1.0000 </r>
       <r>    1.7270    1.0000 </r>
       <r>    2.6941    1.0000 </r>
       <r>    8.9980    0.0000 </r>
       <r>    9.3948    0.0000 </r>
       <r>    9.9877    0.0000 </r>
       <r>   13.3189    0.0000 </r>
       <r>   13.9727    0.0000 </r>
       <r>   15.6965    0.0000 </r>
       <r>   18.7524    0.0000 </r>
       <r>   19.9599    0.0000 </r>
      </set>
      <set comment="kpoint 46">
       <r>   -2.6111    1.0000 </r>
       <r>   -1.3980    1.0000 </r>
       <r>    1.5737    1.0000 </r>
       <r>    2.4492    1.0000 </r>
       <r>    9.2910    0.0000 </r>
       <r>    9.5681    0.0000 </r>
       <r>   10.9774    0.0000 </r>
       <r>   11.3844    0.0000 </r>
       <r>   14.4126    0.0000 </r>
       <r>   16.6651    0.0000 </r>
       <r>   17.6996    0.0000 </r>
       <r>   19.8849    0.0000 </r>
      </set>
      <set comment="kpoint 47">
       <r>   -1.9920    1.0000 </r>
       <r>   -1.9920    1.0000 </r>
       <r>    1.9298    1.0000 </r>
       <r>    1.9298    1.0000 </r>
       <r>    9.0408    0.0000 </r>
       <r>    9.0408    0.0000 </r>
       <r>   11.4778    0.0000 </r>
       <r>   11.4778    0.0000 </r>
       <r>   16.0661    0.0000 </r>
       <r>   16.0661    0.0000 </r>
       <r>   18.4565    0.0000 </r>
       <r>   18.4565    0.0000 </r>
      </set>
     </set>
    </set>
   </array>
  </eigenvalues>
  <separator name="orbital magnetization" >
   <v name="MAGDIPOLOUT">      0.00000000      0.00000000      0.00000000</v>
  </separator>
  <dos>
   <i name="efermi">      5.62416908 </i>
   <total>
    <array>
     <dimension dim="1">gridpoints</dimension>
     <dimension dim="2">spin</dimension>
     <field>energy</field>
     <field>total</field>
     <field>integrated</field>
     <set>
      <set comment="spin 1">
       <r>    -8.1995     0.0000     0.0000 </r>
       <r>    -8.0974     0.0000     0.0000 </r>
       <r>    -7.9953     0.0000     0.0000 </r>
       <r>    -7.8932     0.0000     0.0000 </r>
       <r>    -7.7910     0.0000     0.0000 </r>
       <r>    -7.6889     0.0000     0.0000 </r>
       <r>    -7.5868     0.0000     0.0000 </r>
       <r>    -7.4847     0.0000     0.0000 </r>
       <r>    -7.3826     0.0000     0.0000 </r>
       <r>    -7.2805     0.0000     0.0000 </r>
       <r>    -7.1784     0.0000     0.0000 </r>
       <r>    -7.0763     0.0000     0.0000 </r>
       <r>    -6.9742     0.0000     0.0000 </r>
       <r>    -6.8721     0.0000     0.0000 </r>
       <r>    -6.7700     0.0000     0.0000 </r>
       <r>    -6.6678     0.0001     0.0000 </r>
       <r>    -6.5657     0.0002     0.0000 </r>
       <r>    -6.4636     0.0001     0.0000 </r>
       <r>    -6.3615    -0.0018    -0.0001 </r>
       <r>    -6.2594    -0.0022    -0.0004 </r>
       <r>    -6.1573     0.0184     0.0015 </r>
       <r>    -6.0552     0.0554     0.0072 </r>
       <r>    -5.9531     0.0639     0.0137 </r>
       <r>    -5.8510     0.0836     0.0222 </r>
       <r>    -5.7489     0.1550     0.0381 </r>
       <r>    -5.6467     0.1519     0.0536 </r>
       <r>    -5.5446     0.0718     0.0609 </r>
       <r>    -5.4425     0.1204     0.0732 </r>
       <r>    -5.3404     0.2315     0.0968 </r>
       <r>    -5.2383     0.2198     0.1193 </r>
       <r>    -5.1362     0.1959     0.1393 </r>
       <r>    -5.0341     0.1808     0.1577 </r>
       <r>    -4.9320     0.1087     0.1688 </r>
       <r>    -4.8299     0.1831     0.1875 </r>
       <r>    -4.7278     0.3648     0.2248 </r>
       <r>    -4.6257     0.3233     0.2578 </r>
       <r>    -4.5235     0.2478     0.2831 </r>
       <r>    -4.4214     0.2859     0.3123 </r>
       <r>    -4.3193     0.1919     0.3319 </r>
       <r>    -4.2172     0.1234     0.3445 </r>
       <r>    -4.1151     0.3667     0.3819 </r>
       <r>    -4.0130     0.6043     0.4436 </r>
       <r>    -3.9109     0.5261     0.4974 </r>
       <r>    -3.8088     0.3894     0.5371 </r>
       <r>    -3.7067     0.2868     0.5664 </r>
       <r>    -3.6046     0.2521     0.5922 </r>
       <r>    -3.5024     0.3882     0.6318 </r>
       <r>    -3.4003     0.5399     0.6869 </r>
       <r>    -3.2982     0.4939     0.7374 </r>
       <r>    -3.1961     0.3664     0.7748 </r>
       <r>    -3.0940     0.2878     0.8042 </r>
       <r>    -2.9919     0.1734     0.8219 </r>
       <r>    -2.8898     0.1386     0.8360 </r>
       <r>    -2.7877     0.2797     0.8646 </r>
       <r>    -2.6856     0.4652     0.9121 </r>
       <r>    -2.5835     0.3898     0.9519 </r>
       <r>    -2.4813     0.1251     0.9646 </r>
       <r>    -2.3792     0.0193     0.9666 </r>
       <r>    -2.2771     0.0286     0.9695 </r>
       <r>    -2.1750     0.0610     0.9758 </r>
       <r>    -2.0729     0.1760     0.9937 </r>
       <r>    -1.9708     0.2229     1.0165 </r>
       <r>    -1.8687     0.1206     1.0288 </r>
       <r>    -1.7666     0.0529     1.0342 </r>
       <r>    -1.6645     0.0248     1.0367 </r>
       <r>    -1.5624    -0.0270     1.0340 </r>
       <r>    -1.4603     0.1366     1.0479 </r>
       <r>    -1.3581     0.5138     1.1004 </r>
       <r>    -1.2560     0.5799     1.1596 </r>
       <r>    -1.1539     0.4450     1.2051 </r>
       <r>    -1.0518     0.4918     1.2553 </r>
       <r>    -0.9497     0.5115     1.3075 </r>
       <r>    -0.8476     0.5655     1.3652 </r>
       <r>    -0.7455     0.5981     1.4263 </r>
       <r>    -0.6434     0.4064     1.4678 </r>
       <r>    -0.5413     0.3031     1.4988 </r>
       <r>    -0.4392     0.2995     1.5294 </r>
       <r>    -0.3370     0.1917     1.5489 </r>
       <r>    -0.2349     0.1923     1.5686 </r>
       <r>    -0.1328     0.3190     1.6011 </r>
       <r>    -0.0307     0.2984     1.6316 </r>
       <r>     0.0714     0.1835     1.6503 </r>
       <r>     0.1735     0.1709     1.6678 </r>
       <r>     0.2756     0.2405     1.6923 </r>
       <r>     0.3777     0.2824     1.7212 </r>
       <r>     0.4798     0.1877     1.7403 </r>
       <r>     0.5819     0.0147     1.7418 </r>
       <r>     0.6840    -0.0461     1.7371 </r>
       <r>     0.7862     0.1241     1.7498 </r>
       <r>     0.8883     0.3784     1.7884 </r>
       <r>     0.9904     0.3038     1.8195 </r>
       <r>     1.0925     0.0663     1.8262 </r>
       <r>     1.1946     0.0244     1.8287 </r>
       <r>     1.2967     0.0965     1.8386 </r>
       <r>     1.3988     0.2683     1.8660 </r>
       <r>     1.5009     0.3868     1.9055 </r>
       <r>     1.6030     0.3570     1.9419 </r>
       <r>     1.7051     0.5491     1.9980 </r>
       <r>     1.8073     0.8177     2.0815 </r>
       <r>     1.9094     0.7464     2.1577 </r>
       <r>     2.0115     0.5155     2.2103 </r>
       <r>     2.1136     0.3272     2.2437 </r>
       <r>     2.2157     0.4036     2.2850 </r>
       <r>     2.3178     0.6165     2.3479 </r>
       <r>     2.4199     0.6059     2.4098 </r>
       <r>     2.5220     0.4643     2.4572 </r>
       <r>     2.6241     0.4615     2.5043 </r>
       <r>     2.7262     0.7832     2.5843 </r>
       <r>     2.8283     0.9406     2.6803 </r>
       <r>     2.9305     0.7892     2.7609 </r>
       <r>     3.0326     0.6720     2.8295 </r>
       <r>     3.1347     0.6568     2.8966 </r>
       <r>     3.2368     0.7699     2.9752 </r>
       <r>     3.3389     0.6603     3.0426 </r>
       <r>     3.4410     0.4886     3.0925 </r>
       <r>     3.5431     0.6782     3.1618 </r>
       <r>     3.6452     0.8772     3.2513 </r>
       <r>     3.7473     0.7665     3.3296 </r>
       <r>     3.8494     0.7310     3.4043 </r>
       <r>     3.9516     0.7951     3.4854 </r>
       <r>     4.0537     0.4938     3.5359 </r>
       <r>     4.1558     0.2588     3.5623 </r>
       <r>     4.2579     0.5223     3.6156 </r>
       <r>     4.3600     0.7775     3.6950 </r>
       <r>     4.4621     0.5932     3.7556 </r>
       <r>     4.5642     0.3350     3.7898 </r>
       <r>     4.6663     0.4147     3.8321 </r>
       <r>     4.7684     0.5154     3.8848 </r>
       <r>     4.8705     0.2890     3.9143 </r>
       <r>     4.9726     0.0881     3.9233 </r>
       <r>     5.0748     0.1771     3.9414 </r>
[...]
        <r>  0.0047  0.0483  0.0002  0.0342  0.0000  0.0000  0.0000  0.0000  0.0000 </r>
       </set>
      </set>
      <set comment="kpoint 41">
       <set comment="band 1">
        <r>  0.2016  0.0069  0.0009  0.0210  0.0000  0.0000  0.0000  0.0000  0.0000 </r>
        <r>  0.2016  0.0069  0.0009  0.0210  0.0000  0.0000  0.0000  0.0000  0.0000 </r>
       </set>
       <set comment="band 2">
        <r>  0.1865  0.0158  0.0041  0.0410  0.0000  0.0000  0.0000  0.0000  0.0000 </r>
        <r>  0.1865  0.0158  0.0041  0.0410  0.0000  0.0000  0.0000  0.0000  0.0000 </r>
       </set>
       <set comment="band 3">
        <r>  0.0063  0.0385  0.0804  0.0532  0.0000  0.0000  0.0000  0.0000  0.0000 </r>
        <r>  0.0063  0.0385  0.0804  0.0532  0.0000  0.0000  0.0000  0.0000  0.0000 </r>
       </set>
       <set comment="band 4">
        <r>  0.0000  0.0876  0.0825  0.0120  0.0000  0.0000  0.0000  0.0000  0.0000 </r>
        <r>  0.0000  0.0876  0.0825  0.0120  0.0000  0.0000  0.0000  0.0000  0.0000 </r>
       </set>
       <set comment="band 5">
        <r>  0.0415  0.0420  0.0172  0.0134  0.0000  0.0000  0.0000  0.0000  0.0000 </r>
        <r>  0.0415  0.0420  0.0172  0.0134  0.0000  0.0000  0.0000  0.0000  0.0000 </r>
       </set>
       <set comment="band 6">
        <r>  0.0416  0.0032  0.0122  0.0338  0.0000  0.0000  0.0000  0.0000  0.0000 </r>
        <r>  0.0416  0.0032  0.0122  0.0338  0.0000  0.0000  0.0000  0.0000  0.0000 </r>
       </set>
       <set comment="band 7">
        <r>  0.0257  0.0665  0.0531  0.0069  0.0000  0.0000  0.0000  0.0000  0.0000 </r>
        <r>  0.0257  0.0665  0.0531  0.0069  0.0000  0.0000  0.0000  0.0000  0.0000 </r>
       </set>
       <set comment="band 8">
        <r>  0.0016  0.0657  0.0823  0.0200  0.0000  0.0000  0.0000  0.0000  0.0000 </r>
        <r>  0.0016  0.0657  0.0823  0.0200  0.0000  0.0000  0.0000  0.0000  0.0000 </r>
       </set>
       <set comment="band 9">
        <r>  0.0072  0.0049  0.0247  0.0699  0.0000  0.0000  0.0000  0.0000  0.0000 </r>
        <r>  0.0072  0.0049  0.0247  0.0699  0.0000  0.0000  0.0000  0.0000  0.0000 </r>
       </set>
       <set comment="band 10">
        <r>  0.0395  0.0139  0.0019  0.0586  0.0000  0.0000  0.0000  0.0000  0.0000 </r>
        <r>  0.0395  0.0139  0.0019  0.0585  0.0000  0.0000  0.0000  0.0000  0.0000 </r>
       </set>
       <set comment="band 11">
        <r>  0.0079  0.0244  0.0621  0.0675  0.0000  0.0000  0.0000  0.0000  0.0000 </r>
        <r>  0.0079  0.0243  0.0620  0.0680  0.0000  0.0000  0.0000  0.0000  0.0000 </r>
       </set>
       <set comment="band 12">
        <r>  0.0336  0.0126  0.0028  0.0339  0.0000  0.0000  0.0000  0.0000  0.0000 </r>
        <r>  0.0341  0.0137  0.0027  0.0358  0.0000  0.0000  0.0000  0.0000  0.0000 </r>
       </set>
      </set>
      <set comment="kpoint 42">
       <set comment="band 1">
        <r>  0.2050  0.0099  0.0012  0.0225  0.0000  0.0000  0.0000  0.0000  0.0000 </r>
        <r>  0.2050  0.0099  0.0012  0.0225  0.0000  0.0000  0.0000  0.0000  0.0000 </r>
       </set>
       <set comment="band 2">
        <r>  0.1912  0.0137  0.0019  0.0366  0.0000  0.0000  0.0000  0.0000  0.0000 </r>
        <r>  0.1912  0.0137  0.0019  0.0366  0.0000  0.0000  0.0000  0.0000  0.0000 </r>
       </set>
       <set comment="band 3">
        <r>  0.0032  0.0969  0.0038  0.0579  0.0000  0.0000  0.0000  0.0000  0.0000 </r>
        <r>  0.0032  0.0969  0.0038  0.0579  0.0000  0.0000  0.0000  0.0000  0.0000 </r>
       </set>
       <set comment="band 4">
        <r>  0.0020  0.0124  0.1619  0.0043  0.0000  0.0000  0.0000  0.0000  0.0000 </r>
        <r>  0.0020  0.0124  0.1619  0.0043  0.0000  0.0000  0.0000  0.0000  0.0000 </r>
       </set>
       <set comment="band 5">
        <r>  0.0423  0.0179  0.0295  0.0157  0.0000  0.0000  0.0000  0.0000  0.0000 </r>
        <r>  0.0423  0.0179  0.0295  0.0157  0.0000  0.0000  0.0000  0.0000  0.0000 </r>
       </set>
       <set comment="band 6">
        <r>  0.0297  0.0443  0.0008  0.0348  0.0000  0.0000  0.0000  0.0000  0.0000 </r>
        <r>  0.0297  0.0443  0.0008  0.0348  0.0000  0.0000  0.0000  0.0000  0.0000 </r>
       </set>
       <set comment="band 7">
        <r>  0.0300  0.0586  0.0515  0.0056  0.0000  0.0000  0.0000  0.0000  0.0000 </r>
        <r>  0.0300  0.0586  0.0515  0.0056  0.0000  0.0000  0.0000  0.0000  0.0000 </r>
       </set>
       <set comment="band 8">
        <r>  0.0206  0.0241  0.0544  0.0615  0.0000  0.0000  0.0000  0.0000  0.0000 </r>
        <r>  0.0206  0.0242  0.0544  0.0614  0.0000  0.0000  0.0000  0.0000  0.0000 </r>
       </set>
       <set comment="band 9">
        <r>  0.0091  0.0537  0.0438  0.0084  0.0000  0.0000  0.0000  0.0000  0.0000 </r>
        <r>  0.0091  0.0537  0.0438  0.0084  0.0000  0.0000  0.0000  0.0000  0.0000 </r>
       </set>
       <set comment="band 10">
        <r>  0.0060  0.0136  0.0206  0.0739  0.0000  0.0000  0.0000  0.0000  0.0000 </r>
        <r>  0.0059  0.0136  0.0206  0.0739  0.0000  0.0000  0.0000  0.0000  0.0000 </r>
       </set>
       <set comment="band 11">
        <r>  0.0236  0.0096  0.0239  0.0696  0.0000  0.0000  0.0000  0.0000  0.0000 </r>
        <r>  0.0236  0.0096  0.0239  0.0694  0.0000  0.0000  0.0000  0.0000  0.0000 </r>
       </set>
       <set comment="band 12">
        <r>  0.0038  0.0792  0.0375  0.0212  0.0000  0.0000  0.0000  0.0000  0.0000 </r>
        <r>  0.0022  0.0801  0.0369  0.0296  0.0000  0.0000  0.0000  0.0000  0.0000 </r>
       </set>
      </set>
      <set comment="kpoint 43">
       <set comment="band 1">
        <r>  0.2125  0.0140  0.0016  0.0146  0.0000  0.0000  0.0000  0.0000  0.0000 </r>
        <r>  0.2125  0.0140  0.0016  0.0146  0.0000  0.0000  0.0000  0.0000  0.0000 </r>
       </set>
       <set comment="band 2">
        <r>  0.1846  0.0233  0.0013  0.0307  0.0000  0.0000  0.0000  0.0000  0.0000 </r>
        <r>  0.1846  0.0233  0.0013  0.0307  0.0000  0.0000  0.0000  0.0000  0.0000 </r>
       </set>
       <set comment="band 3">
        <r>  0.0014  0.0839  0.0003  0.0685  0.0000  0.0000  0.0000  0.0000  0.0000 </r>
        <r>  0.0014  0.0839  0.0003  0.0685  0.0000  0.0000  0.0000  0.0000  0.0000 </r>
       </set>
       <set comment="band 4">
        <r>  0.0029  0.0043  0.1681  0.0086  0.0000  0.0000  0.0000  0.0000  0.0000 </r>
        <r>  0.0029  0.0043  0.1681  0.0086  0.0000  0.0000  0.0000  0.0000  0.0000 </r>
       </set>
       <set comment="band 5">
        <r>  0.0430  0.0129  0.0299  0.0231  0.0000  0.0000  0.0000  0.0000  0.0000 </r>
        <r>  0.0430  0.0129  0.0299  0.0231  0.0000  0.0000  0.0000  0.0000  0.0000 </r>
       </set>
       <set comment="band 6">
        <r>  0.0055  0.0454  0.0156  0.0234  0.0000  0.0000  0.0000  0.0000  0.0000 </r>
        <r>  0.0055  0.0454  0.0156  0.0234  0.0000  0.0000  0.0000  0.0000  0.0000 </r>
       </set>
       <set comment="band 7">
        <r>  0.0369  0.0238  0.0709  0.0365  0.0000  0.0000  0.0000  0.0000  0.0000 </r>
        <r>  0.0369  0.0238  0.0709  0.0365  0.0000  0.0000  0.0000  0.0000  0.0000 </r>
       </set>
       <set comment="band 8">
        <r>  0.0368  0.0538  0.0023  0.0403  0.0000  0.0000  0.0000  0.0000  0.0000 </r>
        <r>  0.0368  0.0538  0.0023  0.0403  0.0000  0.0000  0.0000  0.0000  0.0000 </r>
       </set>
       <set comment="band 9">
        <r>  0.0116  0.0243  0.0651  0.0484  0.0000  0.0000  0.0000  0.0000  0.0000 </r>
        <r>  0.0116  0.0243  0.0651  0.0484  0.0000  0.0000  0.0000  0.0000  0.0000 </r>
       </set>
       <set comment="band 10">
        <r>  0.0219  0.0486  0.0105  0.0276  0.0000  0.0000  0.0000  0.0000  0.0000 </r>
        <r>  0.0219  0.0486  0.0105  0.0276  0.0000  0.0000  0.0000  0.0000  0.0000 </r>
       </set>
       <set comment="band 11">
        <r>  0.0063  0.0525  0.0035  0.0794  0.0000  0.0000  0.0000  0.0000  0.0000 </r>
        <r>  0.0063  0.0525  0.0034  0.0790  0.0000  0.0000  0.0000  0.0000  0.0000 </r>
       </set>
       <set comment="band 12">
        <r>  0.0048  0.0420  0.0325  0.0039  0.0000  0.0000  0.0000  0.0000  0.0000 </r>
        <r>  0.0050  0.0411  0.0320  0.0044  0.0000  0.0000  0.0000  0.0000  0.0000 </r>
       </set>
      </set>
      <set comment="kpoint 44">
       <set comment="band 1">
        <r>  0.1965  0.0151  0.0015  0.0264  0.0000  0.0000  0.0000  0.0000  0.0000 </r>
        <r>  0.1965  0.0151  0.0015  0.0264  0.0000  0.0000  0.0000  0.0000  0.0000 </r>
       </set>
       <set comment="band 2">
        <r>  0.1965  0.0136  0.0014  0.0280  0.0000  0.0000  0.0000  0.0000  0.0000 </r>
        <r>  0.1965  0.0136  0.0014  0.0280  0.0000  0.0000  0.0000  0.0000  0.0000 </r>
       </set>
       <set comment="band 3">
        <r>  0.0025  0.0432  0.0740  0.0585  0.0000  0.0000  0.0000  0.0000  0.0000 </r>
        <r>  0.0025  0.0432  0.0740  0.0585  0.0000  0.0000  0.0000  0.0000  0.0000 </r>
       </set>
       <set comment="band 4">
        <r>  0.0025  0.0739  0.0900  0.0118  0.0000  0.0000  0.0000  0.0000  0.0000 </r>
        <r>  0.0025  0.0739  0.0900  0.0118  0.0000  0.0000  0.0000  0.0000  0.0000 </r>
       </set>
       <set comment="band 5">
        <r>  0.0427  0.0167  0.0042  0.0382  0.0000  0.0000  0.0000  0.0000  0.0000 </r>
        <r>  0.0428  0.0166  0.0042  0.0382  0.0000  0.0000  0.0000  0.0000  0.0000 </r>
       </set>
       <set comment="band 6">
        <r>  0.0428  0.0227  0.0261  0.0102  0.0000  0.0000  0.0000  0.0000  0.0000 </r>
        <r>  0.0427  0.0227  0.0261  0.0102  0.0000  0.0000  0.0000  0.0000  0.0000 </r>
       </set>
       <set comment="band 7">
        <r>  0.0167  0.0739  0.0564  0.0076  0.0000  0.0000  0.0000  0.0000  0.0000 </r>
        <r>  0.0172  0.0739  0.0569  0.0073  0.0000  0.0000  0.0000  0.0000  0.0000 </r>
       </set>
       <set comment="band 8">
        <r>  0.0172  0.0181  0.0574  0.0626  0.0000  0.0000  0.0000  0.0000  0.0000 </r>
        <r>  0.0167  0.0181  0.0569  0.0630  0.0000  0.0000  0.0000  0.0000  0.0000 </r>
       </set>
       <set comment="band 9">
        <r>  0.0011  0.0417  0.0537  0.0071  0.0000  0.0000  0.0000  0.0000  0.0000 </r>
        <r>  0.0007  0.0494  0.0617  0.0144  0.0000  0.0000  0.0000  0.0000  0.0000 </r>
       </set>
       <set comment="band 10">
        <r>  0.0007  0.0343  0.0422  0.0491  0.0000  0.0000  0.0000  0.0000  0.0000 </r>
        <r>  0.0011  0.0266  0.0341  0.0418  0.0000  0.0000  0.0000  0.0000  0.0000 </r>
       </set>
       <set comment="band 11">
        <r>  0.0382  0.0121  0.0024  0.0251  0.0000  0.0000  0.0000  0.0000  0.0000 </r>
        <r>  0.0106  0.0465  0.0078  0.0886  0.0000  0.0000  0.0000  0.0000  0.0000 </r>
       </set>
       <set comment="band 12">
        <r>  0.0106  0.0488  0.0072  0.0871  0.0000  0.0000  0.0000  0.0000  0.0000 </r>
        <r>  0.0383  0.0143  0.0018  0.0235  0.0000  0.0000  0.0000  0.0000  0.0000 </r>
       </set>
      </set>
      <set comment="kpoint 45">
       <set comment="band 1">
        <r>  0.2071  0.0053  0.0037  0.0199  0.0000  0.0000  0.0000  0.0000  0.0000 </r>
        <r>  0.2071  0.0053  0.0037  0.0199  0.0000  0.0000  0.0000  0.0000  0.0000 </r>
       </set>
       <set comment="band 2">
        <r>  0.1869  0.0131  0.0138  0.0317  0.0000  0.0000  0.0000  0.0000  0.0000 </r>
        <r>  0.1869  0.0131  0.0138  0.0317  0.0000  0.0000  0.0000  0.0000  0.0000 </r>
       </set>
       <set comment="band 3">
        <r>  0.0067  0.0257  0.0643  0.0654  0.0000  0.0000  0.0000  0.0000  0.0000 </r>
        <r>  0.0067  0.0257  0.0643  0.0654  0.0000  0.0000  0.0000  0.0000  0.0000 </r>
       </set>
       <set comment="band 4">
        <r>  0.0016  0.1006  0.0610  0.0106  0.0000  0.0000  0.0000  0.0000  0.0000 </r>
        <r>  0.0016  0.1006  0.0610  0.0106  0.0000  0.0000  0.0000  0.0000  0.0000 </r>
       </set>
       <set comment="band 5">
        <r>  0.0272  0.0553  0.0338  0.0077  0.0000  0.0000  0.0000  0.0000  0.0000 </r>
        <r>  0.0272  0.0553  0.0338  0.0077  0.0000  0.0000  0.0000  0.0000  0.0000 </r>
       </set>
       <set comment="band 6">
        <r>  0.0090  0.0121  0.0338  0.0269  0.0000  0.0000  0.0000  0.0000  0.0000 </r>
        <r>  0.0090  0.0121  0.0338  0.0269  0.0000  0.0000  0.0000  0.0000  0.0000 </r>
       </set>
       <set comment="band 7">
        <r>  0.0664  0.0466  0.0321  0.0194  0.0000  0.0000  0.0000  0.0000  0.0000 </r>
        <r>  0.0664  0.0466  0.0321  0.0194  0.0000  0.0000  0.0000  0.0000  0.0000 </r>
       </set>
       <set comment="band 8">
        <r>  0.0195  0.0095  0.0363  0.0721  0.0000  0.0000  0.0000  0.0000  0.0000 </r>
        <r>  0.0195  0.0095  0.0363  0.0720  0.0000  0.0000  0.0000  0.0000  0.0000 </r>
       </set>
       <set comment="band 9">
        <r>  0.0033  0.0676  0.0593  0.0145  0.0000  0.0000  0.0000  0.0000  0.0000 </r>
        <r>  0.0033  0.0676  0.0593  0.0145  0.0000  0.0000  0.0000  0.0000  0.0000 </r>
       </set>
       <set comment="band 10">
        <r>  0.0304  0.0098  0.0062  0.0692  0.0000  0.0000  0.0000  0.0000  0.0000 </r>
        <r>  0.0304  0.0098  0.0062  0.0689  0.0000  0.0000  0.0000  0.0000  0.0000 </r>
       </set>
       <set comment="band 11">
        <r>  0.0054  0.0327  0.0542  0.0228  0.0000  0.0000  0.0000  0.0000  0.0000 </r>
        <r>  0.0054  0.0353  0.0561  0.0210  0.0000  0.0000  0.0000  0.0000  0.0000 </r>
       </set>
       <set comment="band 12">
        <r>  0.0080  0.0295  0.0298  0.0121  0.0000  0.0000  0.0000  0.0000  0.0000 </r>
        <r>  0.0076  0.0207  0.0032  0.0802  0.0000  0.0000  0.0000  0.0000  0.0000 </r>
       </set>
      </set>
      <set comment="kpoint 46">
       <set comment="band 1">
        <r>  0.2111  0.0114  0.0055  0.0148  0.0000  0.0000  0.0000  0.0000  0.0000 </r>
        <r>  0.2111  0.0114  0.0055  0.0148  0.0000  0.0000  0.0000  0.0000  0.0000 </r>
       </set>
       <set comment="band 2">
        <r>  0.1887  0.0121  0.0070  0.0340  0.0000  0.0000  0.0000  0.0000  0.0000 </r>
        <r>  0.1887  0.0121  0.0070  0.0340  0.0000  0.0000  0.0000  0.0000  0.0000 </r>
       </set>
       <set comment="band 3">
        <r>  0.0051  0.0627  0.0230  0.0680  0.0000  0.0000  0.0000  0.0000  0.0000 </r>
        <r>  0.0051  0.0627  0.0230  0.0680  0.0000  0.0000  0.0000  0.0000  0.0000 </r>
       </set>
       <set comment="band 4">
        <r>  0.0009  0.0497  0.1086  0.0104  0.0000  0.0000  0.0000  0.0000  0.0000 </r>
        <r>  0.0009  0.0497  0.1086  0.0104  0.0000  0.0000  0.0000  0.0000  0.0000 </r>
       </set>
       <set comment="band 5">
        <r>  0.0069  0.0303  0.0523  0.0030  0.0000  0.0000  0.0000  0.0000  0.0000 </r>
        <r>  0.0069  0.0303  0.0523  0.0030  0.0000  0.0000  0.0000  0.0000  0.0000 </r>
       </set>
       <set comment="band 6">
        <r>  0.0488  0.0305  0.0519  0.0096  0.0000  0.0000  0.0000  0.0000  0.0000 </r>
        <r>  0.0488  0.0305  0.0519  0.0096  0.0000  0.0000  0.0000  0.0000  0.0000 </r>
       </set>
       <set comment="band 7">
        <r>  0.0239  0.0260  0.0117  0.0511  0.0000  0.0000  0.0000  0.0000  0.0000 </r>
        <r>  0.0239  0.0260  0.0117  0.0511  0.0000  0.0000  0.0000  0.0000  0.0000 </r>
       </set>
       <set comment="band 8">
        <r>  0.0433  0.0426  0.0160  0.0564  0.0000  0.0000  0.0000  0.0000  0.0000 </r>
        <r>  0.0433  0.0426  0.0160  0.0564  0.0000  0.0000  0.0000  0.0000  0.0000 </r>
       </set>
       <set comment="band 9">
        <r>  0.0089  0.0652  0.0606  0.0080  0.0000  0.0000  0.0000  0.0000  0.0000 </r>
        <r>  0.0089  0.0652  0.0606  0.0080  0.0000  0.0000  0.0000  0.0000  0.0000 </r>
       </set>
       <set comment="band 10">
        <r>  0.0058  0.0149  0.0021  0.0917  0.0000  0.0000  0.0000  0.0000  0.0000 </r>
        <r>  0.0058  0.0149  0.0021  0.0917  0.0000  0.0000  0.0000  0.0000  0.0000 </r>
       </set>
       <set comment="band 11">
        <r>  0.0232  0.0093  0.0449  0.0551  0.0000  0.0000  0.0000  0.0000  0.0000 </r>
        <r>  0.0232  0.0093  0.0449  0.0551  0.0000  0.0000  0.0000  0.0000  0.0000 </r>
       </set>
       <set comment="band 12">
        <r>  0.0001  0.0741  0.0356  0.0083  0.0000  0.0000  0.0000  0.0000  0.0000 </r>
        <r>  0.0001  0.0737  0.0350  0.0093  0.0000  0.0000  0.0000  0.0000  0.0000 </r>
       </set>
      </set>
      <set comment="kpoint 47">
       <set comment="band 1">
        <r>  0.2029  0.0142  0.0065  0.0206  0.0000  0.0000  0.0000  0.0000  0.0000 </r>
        <r>  0.2030  0.0142  0.0065  0.0206  0.0000  0.0000  0.0000  0.0000  0.0000 </r>
       </set>
       <set comment="band 2">
        <r>  0.2030  0.0133  0.0064  0.0215  0.0000  0.0000  0.0000  0.0000  0.0000 </r>
        <r>  0.2029  0.0133  0.0064  0.0215  0.0000  0.0000  0.0000  0.0000  0.0000 </r>
       </set>
       <set comment="band 3">
        <r>  0.0007  0.0205  0.0658  0.0751  0.0000  0.0000  0.0000  0.0000  0.0000 </r>
        <r>  0.0007  0.0204  0.0658  0.0751  0.0000  0.0000  0.0000  0.0000  0.0000 </r>
       </set>
       <set comment="band 4">
        <r>  0.0007  0.0871  0.0624  0.0118  0.0000  0.0000  0.0000  0.0000  0.0000 </r>
        <r>  0.0007  0.0871  0.0624  0.0119  0.0000  0.0000  0.0000  0.0000  0.0000 </r>
       </set>
       <set comment="band 5">
        <r>  0.0278  0.0443  0.0038  0.0353  0.0000  0.0000  0.0000  0.0000  0.0000 </r>
        <r>  0.0264  0.0442  0.0031  0.0356  0.0000  0.0000  0.0000  0.0000  0.0000 </r>
       </set>
       <set comment="band 6">
        <r>  0.0264  0.0111  0.0609  0.0109  0.0000  0.0000  0.0000  0.0000  0.0000 </r>
        <r>  0.0278  0.0113  0.0616  0.0105  0.0000  0.0000  0.0000  0.0000  0.0000 </r>
       </set>
       <set comment="band 7">
        <r>  0.0343  0.0606  0.0361  0.0109  0.0000  0.0000  0.0000  0.0000  0.0000 </r>
        <r>  0.0344  0.0606  0.0361  0.0108  0.0000  0.0000  0.0000  0.0000  0.0000 </r>
       </set>
       <set comment="band 8">
        <r>  0.0344  0.0111  0.0357  0.0607  0.0000  0.0000  0.0000  0.0000  0.0000 </r>
        <r>  0.0343  0.0111  0.0357  0.0608  0.0000  0.0000  0.0000  0.0000  0.0000 </r>
       </set>
       <set comment="band 9">
        <r>  0.0001  0.0747  0.0434  0.0200  0.0000  0.0000  0.0000  0.0000  0.0000 </r>
        <r>  0.0001  0.0721  0.0419  0.0162  0.0000  0.0000  0.0000  0.0000  0.0000 </r>
       </set>
       <set comment="band 10">
        <r>  0.0001  0.0147  0.0544  0.0611  0.0000  0.0000  0.0000  0.0000  0.0000 </r>
        <r>  0.0001  0.0174  0.0559  0.0649  0.0000  0.0000  0.0000  0.0000  0.0000 </r>
       </set>
       <set comment="band 11">
        <r>  0.0368  0.0185  0.0096  0.0273  0.0000  0.0000  0.0000  0.0000  0.0000 </r>
        <r>  0.0138  0.0493  0.0256  0.0728  0.0000  0.0000  0.0000  0.0000  0.0000 </r>
       </set>
       <set comment="band 12">
        <r>  0.0138  0.0492  0.0255  0.0730  0.0000  0.0000  0.0000  0.0000  0.0000 </r>
        <r>  0.0368  0.0184  0.0096  0.0275  0.0000  0.0000  0.0000  0.0000  0.0000 </r>
       </set>
      </set>
     </set>
    </set>
   </array>
  </projected>
 </calculation>
 <structure name="finalpos" >
  <crystal>
   <varray name="basis" >
    <v>       3.34889800       0.00000000       1.93348700 </v>
    <v>       1.11629900       3.15737200       1.93348700 </v>
    <v>       0.00000000       0.00000000       3.86697500 </v>
   </varray>
   <i name="volume">     40.88829843 </i>
   <varray name="rec_basis" >
    <v>       0.29860569      -0.10557300       0.00000000 </v>
    <v>       0.00000000       0.31671909       0.00000000 </v>
    <v>      -0.14930281      -0.10557302       0.25860007 </v>
   </varray>
  </crystal>
  <varray name="positions" >
   <v>       0.25000000       0.25000000       0.25000000 </v>
   <v>       0.00000000       0.00000000       0.00000000 </v>
  </varray>
 </structure>
</modeling>
