Fe    ONCVPSP-3.2.3.1  r_core=   1.26437   1.20546   1.56719
26.0000     16.0000      170429    zatom,zion,pspd
8      11   2     4   600     0    pspcod,pspxc,lmax,lloc,mmax,r2well
5.99000000  3.00000000  0.00000000    rchrg fchrg qchrg
2     2     2     0     0    nproj
1     1           extension_switch
0                         1.0165788498768D+01  1.4646150645517D+00
1  0.0000000000000D+00  6.2816418733291D-13  2.2306656521920D-10
2  1.0000000000000D-02  9.5003991480818D-02 -2.8504563550008D-02
3  2.0000000000000D-02  1.8971990861746D-01 -5.6755390037992D-02
4  3.0000000000000D-02  2.8386067209299D-01 -8.4500162491699D-02
5  4.0000000000000D-02  3.7714118962101D-01 -1.1148939569032D-01
6  5.0000000000000D-02  4.6927934190068D-01 -1.3747783102662D-01
7  6.0000000000000D-02  5.5999695949758D-01 -1.6222580631087D-01
8  7.0000000000000D-02  6.4902078762378D-01 -1.8550059242653D-01
9  8.0000000000000D-02  7.3608343578961D-01 -2.0707768897053D-01
10  9.0000000000000D-02  8.2092430930022D-01 -2.2674207128697D-01
11  1.0000000000000D-01  9.0329051957280D-01 -2.4428938163092D-01
12  1.1000000000000D-01  9.8293777025646D-01 -2.5952705757517D-01
13  1.2000000000000D-01  1.0596312161470D+00 -2.7227539119699D-01
14  1.3000000000000D-01  1.1331462919047D+00 -2.8236851304892D-01
15  1.4000000000000D-01  1.2032695076070D+00 -2.8965529542642D-01
16  1.5000000000000D-01  1.2697992081981D+00 -2.9400016999088D-01
17  1.6000000000000D-01  1.3325462939400D+00 -2.9528385538566D-01
18  1.7000000000000D-01  1.3913348990207D+00 -2.9340399109169D-01
19  1.8000000000000D-01  1.4460030255406D+00 -2.8827567440286D-01
20  1.9000000000000D-01  1.4964031301770D+00 -2.7983189805503D-01
21  2.0000000000000D-01  1.5424026609174D+00 -2.6802388671172D-01
22  2.1000000000000D-01  1.5838845413656D+00 -2.5282133118864D-01
23  2.2000000000000D-01  1.6207476002461D+00 -2.3421251998275D-01
24  2.3000000000000D-01  1.6529069438782D+00 -2.1220436835436D-01
25  2.4000000000000D-01  1.6802942695504D+00 -1.8682234588653D-01
26  2.5000000000000D-01  1.7028581179073D+00 -1.5811030410997D-01
27  2.6000000000000D-01  1.7205640626539D+00 -1.2613020642704D-01
28  2.7000000000000D-01  1.7333948361022D+00 -9.0961763189828D-02
29  2.8000000000000D-01  1.7413503893147D+00 -5.2701975380200D-02
30  2.9000000000000D-01  1.7444478858470D+00 -1.1464590896827D-02
31  3.0000000000000D-01  1.7427216283611D+00  3.2620522027908D-02
32  3.1000000000000D-01  1.7362229176550D+00  7.9408079285195D-02
33  3.2000000000000D-01  1.7250198439514D+00  1.2873815780134D-01
34  3.3000000000000D-01  1.7091970105865D+00  1.8043703911285D-01
35  3.4000000000000D-01  1.6888551905600D+00  2.3431811349980D-01
36  3.5000000000000D-01  1.6641109167201D+00  2.9018283831763D-01
37  3.6000000000000D-01  1.6350960066909D+00  3.4782174397333D-01
38  3.7000000000000D-01  1.6019570239721D+00  4.0701548086249D-01
39  3.8000000000000D-01  1.5648546769740D+00  4.6753590051705D-01
40  3.9000000000000D-01  1.5239631580756D+00  5.2914716421112D-01
41  4.0000000000000D-01  1.4794694251183D+00  5.9160687233354D-01
42  4.1000000000000D-01  1.4315724280594D+00  6.5466720795826D-01
43  4.2000000000000D-01  1.3804822838196D+00  7.1807608822599D-01
44  4.3000000000000D-01  1.3264194026466D+00  7.8157831738861D-01
45  4.4000000000000D-01  1.2696135695994D+00  8.4491673565877D-01
46  4.5000000000000D-01  1.2103029850166D+00  9.0783335834546D-01
47  4.6000000000000D-01  1.1487332680747D+00  9.7007050013693D-01
48  4.7000000000000D-01  1.0851564277630D+00  1.0313718798095D+00
49  4.8000000000000D-01  1.0198298057994D+00  1.0914837010879D+00
50  4.9000000000000D-01  9.5301499618318D-01  1.1501557058525D+00
51  5.0000000000000D-01  8.8497674623016D-01  1.2071421963731D+00
52  5.1000000000000D-01  8.1598184405101D-01  1.2622030237442D+00
53  5.2000000000000D-01  7.4629799752949D-01  1.3151045401853D+00
54  5.3000000000000D-01  6.7619270991670D-01  1.3656205133600D+00
55  5.4000000000000D-01  6.0593215719261D-01  1.4135330013293D+00
56  5.5000000000000D-01  5.3578007234987D-01  1.4586331872071D+00
57  5.6000000000000D-01  4.6599664173086D-01  1.5007221729940D+00
58  5.7000000000000D-01  3.9683741849496D-01  1.5396117324434D+00
59  5.8000000000000D-01  3.2855225821242D-01  1.5751250231486D+00
60  5.9000000000000D-01  2.6138428147254D-01  1.6070972583151D+00
61  6.0000000000000D-01  1.9556886825990D-01  1.6353763389160D+00
62  6.1000000000000D-01  1.3133268869298D-01  1.6598234470912D+00
63  6.2000000000000D-01  6.8892774538220D-02  1.6803136017591D+00
64  6.3000000000000D-01  8.4556357074852D-03  1.6967361774505D+00
65  6.4000000000000D-01 -4.9783574275113D-02  1.7089953873519D+00
66  6.5000000000000D-01 -1.0564184009393D-01  1.7170107314555D+00
67  6.6000000000000D-01 -1.5894901026429D-01  1.7207174105630D+00
68  6.7000000000000D-01 -2.0954846334227D-01  1.7200667066770D+00
69  6.8000000000000D-01 -2.5729771179165D-01  1.7150263300443D+00
70  6.9000000000000D-01 -3.0206894087179D-01  1.7055807327920D+00
71  7.0000000000000D-01 -3.4374948021233D-01  1.6917313887288D+00
72  7.1000000000000D-01 -3.8224220604732D-01  1.6734970384768D+00
73  7.2000000000000D-01 -4.1746587239578D-01  1.6509138986561D+00
74  7.3000000000000D-01 -4.4935536978836D-01  1.6240358333818D+00
75  7.4000000000000D-01 -4.7786191045553D-01  1.5929344858556D+00
76  7.5000000000000D-01 -5.0295313920695D-01  1.5576993673505D+00
77  7.6000000000000D-01 -5.2461316954189D-01  1.5184379004139D+00
78  7.7000000000000D-01 -5.4284254483850D-01  1.4752754126505D+00
79  7.8000000000000D-01 -5.5765812477090D-01  1.4283550770158D+00
80  7.9000000000000D-01 -5.6909289739778D-01  1.3778377941559D+00
81  8.0000000000000D-01 -5.7719571765304D-01  1.3239020119771D+00
82  8.1000000000000D-01 -5.8203097324709D-01  1.2667434773402D+00
83  8.2000000000000D-01 -5.8367817925548D-01  1.2065749145445D+00
84  8.3000000000000D-01 -5.8223150292918D-01  1.1436256251164D+00
85  8.4000000000000D-01 -5.7779922050708D-01  1.0781410033425D+00
86  8.5000000000000D-01 -5.7050310804544D-01  1.0103819620009D+00
87  8.6000000000000D-01 -5.6047776850081D-01  9.4062426285325D-01
88  8.7000000000000D-01 -5.4786989751152D-01  8.6915774665282D-01
89  8.8000000000000D-01 -5.3283749051794D-01  7.9628545772683D-01
90  8.9000000000000D-01 -5.1554899404282D-01  7.2232265857721D-01
91  9.0000000000000D-01 -4.9618240411964D-01  6.4759573043427D-01
92  9.1000000000000D-01 -4.7492431500889D-01  5.7244095627516D-01
93  9.2000000000000D-01 -4.5196892147876D-01  4.9720318348543D-01
94  9.3000000000000D-01 -4.2751697804799D-01  4.2223436408871D-01
95  9.4000000000000D-01 -4.0177471869347D-01  3.4789197128992D-01
96  9.5000000000000D-01 -3.7495274061398D-01  2.7453729196143D-01
97  9.6000000000000D-01 -3.4726485571341D-01  2.0253359563667D-01
98  9.7000000000000D-01 -3.1892691352099D-01  1.3224418156484D-01
99  9.8000000000000D-01 -2.9015559930285D-01  6.4030306365765D-02
100  9.9000000000000D-01 -2.6116721113836D-01 -1.7510041339321D-03
101  1.0000000000000D+00 -2.3217641973385D-01 -6.4749254287689D-02
102  1.0100000000000D+00 -2.0339501472770D-01 -1.2462288364026D-01
103  1.0200000000000D+00 -1.7503064120173D-01 -1.8104177098576D-01
104  1.0300000000000D+00 -1.4728553005618D-01 -2.3368982996875D-01
105  1.0400000000000D+00 -1.2035522582140D-01 -2.8226768783417D-01
106  1.0500000000000D+00 -9.4427315392084D-02 -3.2649543820060D-01
107  1.0600000000000D+00 -6.9680161035024D-02 -3.6611545794261D-01
108  1.0700000000000D+00 -4.6281640835588D-02 -4.0089527792091D-01
109  1.0800000000000D+00 -2.4387898200602D-02 -4.3063050156800D-01
110  1.0900000000000D+00 -4.1420976764477D-03 -4.5514777762225D-01
111  1.1000000000000D+00  1.4326664593941D-02 -4.7430732442606D-01
112  1.1100000000000D+00  3.0905045469915D-02 -4.8800755923135D-01
113  1.1200000000000D+00  4.5495184824036D-02 -4.9618306366909D-01
114  1.1300000000000D+00  5.8011606822949D-02 -4.9879305284848D-01
115  1.1400000000000D+00  6.8377714786293D-02 -4.9580932638759D-01
116  1.1500000000000D+00  7.6525271253307D-02 -4.8721487751549D-01
117  1.1600000000000D+00  8.2394750863506D-02 -4.7300564496952D-01
118  1.1700000000000D+00  8.5935277038088D-02 -4.5319078300629D-01
119  1.1800000000000D+00  8.7104641627986D-02 -4.2779324232239D-01
120  1.1900000000000D+00  8.5869308982416D-02 -3.9685029049335D-01
121  1.2000000000000D+00  8.2204402483195D-02 -3.6041395849549D-01
122  1.2100000000000D+00  7.6093676234311D-02 -3.1855141505917D-01
123  1.2200000000000D+00  6.7528372378609D-02 -2.7134153869405D-01
124  1.2300000000000D+00  5.6449579732738D-02 -2.1868016796728D-01
125  1.2400000000000D+00  4.3546555692297D-02 -1.6299830703430D-01
126  1.2500000000000D+00  2.6924862831936D-02 -9.7893166832081D-02
127  1.2600000000000D+00  6.5132934588393D-03 -2.3158683435933D-02
128  1.2700000000000D+00 -2.3775254790797D-03  8.6519979203282D-03
129  1.2800000000000D+00  7.1478570764580D-05 -2.6111097925383D-04
130  1.2900000000000D+00  4.6538599961763D-04 -1.6938949519749D-03
131  1.3000000000000D+00 -6.8392974285171D-05  2.5395832242942D-04
132  1.3100000000000D+00 -6.2656360609847D-06  2.3234768571864D-05
133  1.3200000000000D+00 -3.9387701344880D-07  9.0974076166233D-07
134  1.3300000000000D+00  0.0000000000000D+00  0.0000000000000D+00
135  1.3400000000000D+00  0.0000000000000D+00  0.0000000000000D+00
136  1.3500000000000D+00  0.0000000000000D+00  0.0000000000000D+00
137  1.3600000000000D+00  0.0000000000000D+00  0.0000000000000D+00
138  1.3700000000000D+00  0.0000000000000D+00  0.0000000000000D+00
139  1.3800000000000D+00  0.0000000000000D+00  0.0000000000000D+00
140  1.3900000000000D+00  0.0000000000000D+00  0.0000000000000D+00
141  1.4000000000000D+00  0.0000000000000D+00  0.0000000000000D+00
142  1.4100000000000D+00  0.0000000000000D+00  0.0000000000000D+00
143  1.4200000000000D+00  0.0000000000000D+00  0.0000000000000D+00
144  1.4300000000000D+00  0.0000000000000D+00  0.0000000000000D+00
145  1.4400000000000D+00  0.0000000000000D+00  0.0000000000000D+00
146  1.4500000000000D+00  0.0000000000000D+00  0.0000000000000D+00
147  1.4600000000000D+00  0.0000000000000D+00  0.0000000000000D+00
148  1.4700000000000D+00  0.0000000000000D+00  0.0000000000000D+00
149  1.4800000000000D+00  0.0000000000000D+00  0.0000000000000D+00
150  1.4900000000000D+00  0.0000000000000D+00  0.0000000000000D+00
151  1.5000000000000D+00  0.0000000000000D+00  0.0000000000000D+00
152  1.5100000000000D+00  0.0000000000000D+00  0.0000000000000D+00
153  1.5200000000000D+00  0.0000000000000D+00  0.0000000000000D+00
154  1.5300000000000D+00  0.0000000000000D+00  0.0000000000000D+00
155  1.5400000000000D+00  0.0000000000000D+00  0.0000000000000D+00
156  1.5500000000000D+00  0.0000000000000D+00  0.0000000000000D+00
157  1.5600000000000D+00  0.0000000000000D+00  0.0000000000000D+00
158  1.5700000000000D+00  0.0000000000000D+00  0.0000000000000D+00
159  1.5800000000000D+00  0.0000000000000D+00  0.0000000000000D+00
160  1.5900000000000D+00  0.0000000000000D+00  0.0000000000000D+00
161  1.6000000000000D+00  0.0000000000000D+00  0.0000000000000D+00
162  1.6100000000000D+00  0.0000000000000D+00  0.0000000000000D+00
163  1.6200000000000D+00  0.0000000000000D+00  0.0000000000000D+00
164  1.6300000000000D+00  0.0000000000000D+00  0.0000000000000D+00
165  1.6400000000000D+00  0.0000000000000D+00  0.0000000000000D+00
166  1.6500000000000D+00  0.0000000000000D+00  0.0000000000000D+00
167  1.6600000000000D+00  0.0000000000000D+00  0.0000000000000D+00
168  1.6700000000000D+00  0.0000000000000D+00  0.0000000000000D+00
169  1.6800000000000D+00  0.0000000000000D+00  0.0000000000000D+00
170  1.6900000000000D+00  0.0000000000000D+00  0.0000000000000D+00
171  1.7000000000000D+00  0.0000000000000D+00  0.0000000000000D+00
172  1.7100000000000D+00  0.0000000000000D+00  0.0000000000000D+00
173  1.7200000000000D+00  0.0000000000000D+00  0.0000000000000D+00
174  1.7300000000000D+00  0.0000000000000D+00  0.0000000000000D+00
175  1.7400000000000D+00  0.0000000000000D+00  0.0000000000000D+00
176  1.7500000000000D+00  0.0000000000000D+00  0.0000000000000D+00
177  1.7600000000000D+00  0.0000000000000D+00  0.0000000000000D+00
178  1.7700000000000D+00  0.0000000000000D+00  0.0000000000000D+00
179  1.7800000000000D+00  0.0000000000000D+00  0.0000000000000D+00
180  1.7900000000000D+00  0.0000000000000D+00  0.0000000000000D+00
181  1.8000000000000D+00  0.0000000000000D+00  0.0000000000000D+00
182  1.8100000000000D+00  0.0000000000000D+00  0.0000000000000D+00
183  1.8200000000000D+00  0.0000000000000D+00  0.0000000000000D+00
184  1.8300000000000D+00  0.0000000000000D+00  0.0000000000000D+00
185  1.8400000000000D+00  0.0000000000000D+00  0.0000000000000D+00
186  1.8500000000000D+00  0.0000000000000D+00  0.0000000000000D+00
187  1.8600000000000D+00  0.0000000000000D+00  0.0000000000000D+00
188  1.8700000000000D+00  0.0000000000000D+00  0.0000000000000D+00
189  1.8800000000000D+00  0.0000000000000D+00  0.0000000000000D+00
190  1.8900000000000D+00  0.0000000000000D+00  0.0000000000000D+00
191  1.9000000000000D+00  0.0000000000000D+00  0.0000000000000D+00
192  1.9100000000000D+00  0.0000000000000D+00  0.0000000000000D+00
193  1.9200000000000D+00  0.0000000000000D+00  0.0000000000000D+00
194  1.9300000000000D+00  0.0000000000000D+00  0.0000000000000D+00
195  1.9400000000000D+00  0.0000000000000D+00  0.0000000000000D+00
196  1.9500000000000D+00  0.0000000000000D+00  0.0000000000000D+00
197  1.9600000000000D+00  0.0000000000000D+00  0.0000000000000D+00
198  1.9700000000000D+00  0.0000000000000D+00  0.0000000000000D+00
199  1.9800000000000D+00  0.0000000000000D+00  0.0000000000000D+00
200  1.9900000000000D+00  0.0000000000000D+00  0.0000000000000D+00
201  2.0000000000000D+00  0.0000000000000D+00  0.0000000000000D+00
202  2.0100000000000D+00  0.0000000000000D+00  0.0000000000000D+00
203  2.0200000000000D+00  0.0000000000000D+00  0.0000000000000D+00
204  2.0300000000000D+00  0.0000000000000D+00  0.0000000000000D+00
205  2.0400000000000D+00  0.0000000000000D+00  0.0000000000000D+00
206  2.0500000000000D+00  0.0000000000000D+00  0.0000000000000D+00
207  2.0600000000000D+00  0.0000000000000D+00  0.0000000000000D+00
208  2.0700000000000D+00  0.0000000000000D+00  0.0000000000000D+00
209  2.0800000000000D+00  0.0000000000000D+00  0.0000000000000D+00
210  2.0900000000000D+00  0.0000000000000D+00  0.0000000000000D+00
211  2.1000000000000D+00  0.0000000000000D+00  0.0000000000000D+00
212  2.1100000000000D+00  0.0000000000000D+00  0.0000000000000D+00
213  2.1200000000000D+00  0.0000000000000D+00  0.0000000000000D+00
214  2.1300000000000D+00  0.0000000000000D+00  0.0000000000000D+00
215  2.1400000000000D+00  0.0000000000000D+00  0.0000000000000D+00
216  2.1500000000000D+00  0.0000000000000D+00  0.0000000000000D+00
217  2.1600000000000D+00  0.0000000000000D+00  0.0000000000000D+00
218  2.1700000000000D+00  0.0000000000000D+00  0.0000000000000D+00
219  2.1800000000000D+00  0.0000000000000D+00  0.0000000000000D+00
220  2.1900000000000D+00  0.0000000000000D+00  0.0000000000000D+00
221  2.2000000000000D+00  0.0000000000000D+00  0.0000000000000D+00
222  2.2100000000000D+00  0.0000000000000D+00  0.0000000000000D+00
223  2.2200000000000D+00  0.0000000000000D+00  0.0000000000000D+00
224  2.2300000000000D+00  0.0000000000000D+00  0.0000000000000D+00
225  2.2400000000000D+00  0.0000000000000D+00  0.0000000000000D+00
226  2.2500000000000D+00  0.0000000000000D+00  0.0000000000000D+00
227  2.2600000000000D+00  0.0000000000000D+00  0.0000000000000D+00
228  2.2700000000000D+00  0.0000000000000D+00  0.0000000000000D+00
229  2.2800000000000D+00  0.0000000000000D+00  0.0000000000000D+00
230  2.2900000000000D+00  0.0000000000000D+00  0.0000000000000D+00
231  2.3000000000000D+00  0.0000000000000D+00  0.0000000000000D+00
232  2.3100000000000D+00  0.0000000000000D+00  0.0000000000000D+00
233  2.3200000000000D+00  0.0000000000000D+00  0.0000000000000D+00
234  2.3300000000000D+00  0.0000000000000D+00  0.0000000000000D+00
235  2.3400000000000D+00  0.0000000000000D+00  0.0000000000000D+00
236  2.3500000000000D+00  0.0000000000000D+00  0.0000000000000D+00
237  2.3600000000000D+00  0.0000000000000D+00  0.0000000000000D+00
238  2.3700000000000D+00  0.0000000000000D+00  0.0000000000000D+00
239  2.3800000000000D+00  0.0000000000000D+00  0.0000000000000D+00
240  2.3900000000000D+00  0.0000000000000D+00  0.0000000000000D+00
241  2.4000000000000D+00  0.0000000000000D+00  0.0000000000000D+00
242  2.4100000000000D+00  0.0000000000000D+00  0.0000000000000D+00
243  2.4200000000000D+00  0.0000000000000D+00  0.0000000000000D+00
244  2.4300000000000D+00  0.0000000000000D+00  0.0000000000000D+00
245  2.4400000000000D+00  0.0000000000000D+00  0.0000000000000D+00
246  2.4500000000000D+00  0.0000000000000D+00  0.0000000000000D+00
247  2.4600000000000D+00  0.0000000000000D+00  0.0000000000000D+00
248  2.4700000000000D+00  0.0000000000000D+00  0.0000000000000D+00
249  2.4800000000000D+00  0.0000000000000D+00  0.0000000000000D+00
250  2.4900000000000D+00  0.0000000000000D+00  0.0000000000000D+00
251  2.5000000000000D+00  0.0000000000000D+00  0.0000000000000D+00
252  2.5100000000000D+00  0.0000000000000D+00  0.0000000000000D+00
253  2.5200000000000D+00  0.0000000000000D+00  0.0000000000000D+00
254  2.5300000000000D+00  0.0000000000000D+00  0.0000000000000D+00
255  2.5400000000000D+00  0.0000000000000D+00  0.0000000000000D+00
256  2.5500000000000D+00  0.0000000000000D+00  0.0000000000000D+00
257  2.5600000000000D+00  0.0000000000000D+00  0.0000000000000D+00
258  2.5700000000000D+00  0.0000000000000D+00  0.0000000000000D+00
259  2.5800000000000D+00  0.0000000000000D+00  0.0000000000000D+00
260  2.5900000000000D+00  0.0000000000000D+00  0.0000000000000D+00
261  2.6000000000000D+00  0.0000000000000D+00  0.0000000000000D+00
262  2.6100000000000D+00  0.0000000000000D+00  0.0000000000000D+00
263  2.6200000000000D+00  0.0000000000000D+00  0.0000000000000D+00
264  2.6300000000000D+00  0.0000000000000D+00  0.0000000000000D+00
265  2.6400000000000D+00  0.0000000000000D+00  0.0000000000000D+00
266  2.6500000000000D+00  0.0000000000000D+00  0.0000000000000D+00
267  2.6600000000000D+00  0.0000000000000D+00  0.0000000000000D+00
268  2.6700000000000D+00  0.0000000000000D+00  0.0000000000000D+00
269  2.6800000000000D+00  0.0000000000000D+00  0.0000000000000D+00
270  2.6900000000000D+00  0.0000000000000D+00  0.0000000000000D+00
271  2.7000000000000D+00  0.0000000000000D+00  0.0000000000000D+00
272  2.7100000000000D+00  0.0000000000000D+00  0.0000000000000D+00
273  2.7200000000000D+00  0.0000000000000D+00  0.0000000000000D+00
274  2.7300000000000D+00  0.0000000000000D+00  0.0000000000000D+00
275  2.7400000000000D+00  0.0000000000000D+00  0.0000000000000D+00
276  2.7500000000000D+00  0.0000000000000D+00  0.0000000000000D+00
277  2.7600000000000D+00  0.0000000000000D+00  0.0000000000000D+00
278  2.7700000000000D+00  0.0000000000000D+00  0.0000000000000D+00
279  2.7800000000000D+00  0.0000000000000D+00  0.0000000000000D+00
280  2.7900000000000D+00  0.0000000000000D+00  0.0000000000000D+00
281  2.8000000000000D+00  0.0000000000000D+00  0.0000000000000D+00
282  2.8100000000000D+00  0.0000000000000D+00  0.0000000000000D+00
283  2.8200000000000D+00  0.0000000000000D+00  0.0000000000000D+00
284  2.8300000000000D+00  0.0000000000000D+00  0.0000000000000D+00
285  2.8400000000000D+00  0.0000000000000D+00  0.0000000000000D+00
286  2.8500000000000D+00  0.0000000000000D+00  0.0000000000000D+00
287  2.8600000000000D+00  0.0000000000000D+00  0.0000000000000D+00
288  2.8700000000000D+00  0.0000000000000D+00  0.0000000000000D+00
289  2.8800000000000D+00  0.0000000000000D+00  0.0000000000000D+00
290  2.8900000000000D+00  0.0000000000000D+00  0.0000000000000D+00
291  2.9000000000000D+00  0.0000000000000D+00  0.0000000000000D+00
292  2.9100000000000D+00  0.0000000000000D+00  0.0000000000000D+00
293  2.9200000000000D+00  0.0000000000000D+00  0.0000000000000D+00
294  2.9300000000000D+00  0.0000000000000D+00  0.0000000000000D+00
295  2.9400000000000D+00  0.0000000000000D+00  0.0000000000000D+00
296  2.9500000000000D+00  0.0000000000000D+00  0.0000000000000D+00
297  2.9600000000000D+00  0.0000000000000D+00  0.0000000000000D+00
298  2.9700000000000D+00  0.0000000000000D+00  0.0000000000000D+00
299  2.9800000000000D+00  0.0000000000000D+00  0.0000000000000D+00
300  2.9900000000000D+00  0.0000000000000D+00  0.0000000000000D+00
301  3.0000000000000D+00  0.0000000000000D+00  0.0000000000000D+00
302  3.0100000000000D+00  0.0000000000000D+00  0.0000000000000D+00
303  3.0200000000000D+00  0.0000000000000D+00  0.0000000000000D+00
304  3.0300000000000D+00  0.0000000000000D+00  0.0000000000000D+00
305  3.0400000000000D+00  0.0000000000000D+00  0.0000000000000D+00
306  3.0500000000000D+00  0.0000000000000D+00  0.0000000000000D+00
307  3.0600000000000D+00  0.0000000000000D+00  0.0000000000000D+00
308  3.0700000000000D+00  0.0000000000000D+00  0.0000000000000D+00
309  3.0800000000000D+00  0.0000000000000D+00  0.0000000000000D+00
310  3.0900000000000D+00  0.0000000000000D+00  0.0000000000000D+00
311  3.1000000000000D+00  0.0000000000000D+00  0.0000000000000D+00
312  3.1100000000000D+00  0.0000000000000D+00  0.0000000000000D+00
313  3.1200000000000D+00  0.0000000000000D+00  0.0000000000000D+00
314  3.1300000000000D+00  0.0000000000000D+00  0.0000000000000D+00
315  3.1400000000000D+00  0.0000000000000D+00  0.0000000000000D+00
316  3.1500000000000D+00  0.0000000000000D+00  0.0000000000000D+00
317  3.1600000000000D+00  0.0000000000000D+00  0.0000000000000D+00
318  3.1700000000000D+00  0.0000000000000D+00  0.0000000000000D+00
319  3.1800000000000D+00  0.0000000000000D+00  0.0000000000000D+00
320  3.1900000000000D+00  0.0000000000000D+00  0.0000000000000D+00
321  3.2000000000000D+00  0.0000000000000D+00  0.0000000000000D+00
322  3.2100000000000D+00  0.0000000000000D+00  0.0000000000000D+00
323  3.2200000000000D+00  0.0000000000000D+00  0.0000000000000D+00
324  3.2300000000000D+00  0.0000000000000D+00  0.0000000000000D+00
325  3.2400000000000D+00  0.0000000000000D+00  0.0000000000000D+00
326  3.2500000000000D+00  0.0000000000000D+00  0.0000000000000D+00
327  3.2600000000000D+00  0.0000000000000D+00  0.0000000000000D+00
328  3.2700000000000D+00  0.0000000000000D+00  0.0000000000000D+00
329  3.2800000000000D+00  0.0000000000000D+00  0.0000000000000D+00
330  3.2900000000000D+00  0.0000000000000D+00  0.0000000000000D+00
331  3.3000000000000D+00  0.0000000000000D+00  0.0000000000000D+00
332  3.3100000000000D+00  0.0000000000000D+00  0.0000000000000D+00
333  3.3200000000000D+00  0.0000000000000D+00  0.0000000000000D+00
334  3.3300000000000D+00  0.0000000000000D+00  0.0000000000000D+00
335  3.3400000000000D+00  0.0000000000000D+00  0.0000000000000D+00
336  3.3500000000000D+00  0.0000000000000D+00  0.0000000000000D+00
337  3.3600000000000D+00  0.0000000000000D+00  0.0000000000000D+00
338  3.3700000000000D+00  0.0000000000000D+00  0.0000000000000D+00
339  3.3800000000000D+00  0.0000000000000D+00  0.0000000000000D+00
340  3.3900000000000D+00  0.0000000000000D+00  0.0000000000000D+00
341  3.4000000000000D+00  0.0000000000000D+00  0.0000000000000D+00
342  3.4100000000000D+00  0.0000000000000D+00  0.0000000000000D+00
343  3.4200000000000D+00  0.0000000000000D+00  0.0000000000000D+00
344  3.4300000000000D+00  0.0000000000000D+00  0.0000000000000D+00
345  3.4400000000000D+00  0.0000000000000D+00  0.0000000000000D+00
346  3.4500000000000D+00  0.0000000000000D+00  0.0000000000000D+00
347  3.4600000000000D+00  0.0000000000000D+00  0.0000000000000D+00
348  3.4700000000000D+00  0.0000000000000D+00  0.0000000000000D+00
349  3.4800000000000D+00  0.0000000000000D+00  0.0000000000000D+00
350  3.4900000000000D+00  0.0000000000000D+00  0.0000000000000D+00
351  3.5000000000000D+00  0.0000000000000D+00  0.0000000000000D+00
352  3.5100000000000D+00  0.0000000000000D+00  0.0000000000000D+00
353  3.5200000000000D+00  0.0000000000000D+00  0.0000000000000D+00
354  3.5300000000000D+00  0.0000000000000D+00  0.0000000000000D+00
355  3.5400000000000D+00  0.0000000000000D+00  0.0000000000000D+00
356  3.5500000000000D+00  0.0000000000000D+00  0.0000000000000D+00
357  3.5600000000000D+00  0.0000000000000D+00  0.0000000000000D+00
358  3.5700000000000D+00  0.0000000000000D+00  0.0000000000000D+00
359  3.5800000000000D+00  0.0000000000000D+00  0.0000000000000D+00
360  3.5900000000000D+00  0.0000000000000D+00  0.0000000000000D+00
361  3.6000000000000D+00  0.0000000000000D+00  0.0000000000000D+00
362  3.6100000000000D+00  0.0000000000000D+00  0.0000000000000D+00
363  3.6200000000000D+00  0.0000000000000D+00  0.0000000000000D+00
364  3.6300000000000D+00  0.0000000000000D+00  0.0000000000000D+00
365  3.6400000000000D+00  0.0000000000000D+00  0.0000000000000D+00
366  3.6500000000000D+00  0.0000000000000D+00  0.0000000000000D+00
367  3.6600000000000D+00  0.0000000000000D+00  0.0000000000000D+00
368  3.6700000000000D+00  0.0000000000000D+00  0.0000000000000D+00
369  3.6800000000000D+00  0.0000000000000D+00  0.0000000000000D+00
370  3.6900000000000D+00  0.0000000000000D+00  0.0000000000000D+00
371  3.7000000000000D+00  0.0000000000000D+00  0.0000000000000D+00
372  3.7100000000000D+00  0.0000000000000D+00  0.0000000000000D+00
373  3.7200000000000D+00  0.0000000000000D+00  0.0000000000000D+00
374  3.7300000000000D+00  0.0000000000000D+00  0.0000000000000D+00
375  3.7400000000000D+00  0.0000000000000D+00  0.0000000000000D+00
376  3.7500000000000D+00  0.0000000000000D+00  0.0000000000000D+00
377  3.7600000000000D+00  0.0000000000000D+00  0.0000000000000D+00
378  3.7700000000000D+00  0.0000000000000D+00  0.0000000000000D+00
379  3.7800000000000D+00  0.0000000000000D+00  0.0000000000000D+00
380  3.7900000000000D+00  0.0000000000000D+00  0.0000000000000D+00
381  3.8000000000000D+00  0.0000000000000D+00  0.0000000000000D+00
382  3.8100000000000D+00  0.0000000000000D+00  0.0000000000000D+00
383  3.8200000000000D+00  0.0000000000000D+00  0.0000000000000D+00
384  3.8300000000000D+00  0.0000000000000D+00  0.0000000000000D+00
385  3.8400000000000D+00  0.0000000000000D+00  0.0000000000000D+00
386  3.8500000000000D+00  0.0000000000000D+00  0.0000000000000D+00
387  3.8600000000000D+00  0.0000000000000D+00  0.0000000000000D+00
388  3.8700000000000D+00  0.0000000000000D+00  0.0000000000000D+00
389  3.8800000000000D+00  0.0000000000000D+00  0.0000000000000D+00
390  3.8900000000000D+00  0.0000000000000D+00  0.0000000000000D+00
391  3.9000000000000D+00  0.0000000000000D+00  0.0000000000000D+00
392  3.9100000000000D+00  0.0000000000000D+00  0.0000000000000D+00
393  3.9200000000000D+00  0.0000000000000D+00  0.0000000000000D+00
394  3.9300000000000D+00  0.0000000000000D+00  0.0000000000000D+00
395  3.9400000000000D+00  0.0000000000000D+00  0.0000000000000D+00
396  3.9500000000000D+00  0.0000000000000D+00  0.0000000000000D+00
397  3.9600000000000D+00  0.0000000000000D+00  0.0000000000000D+00
398  3.9700000000000D+00  0.0000000000000D+00  0.0000000000000D+00
399  3.9800000000000D+00  0.0000000000000D+00  0.0000000000000D+00
400  3.9900000000000D+00  0.0000000000000D+00  0.0000000000000D+00
401  4.0000000000000D+00  0.0000000000000D+00  0.0000000000000D+00
402  4.0100000000000D+00  0.0000000000000D+00  0.0000000000000D+00
403  4.0200000000000D+00  0.0000000000000D+00  0.0000000000000D+00
404  4.0300000000000D+00  0.0000000000000D+00  0.0000000000000D+00
405  4.0400000000000D+00  0.0000000000000D+00  0.0000000000000D+00
406  4.0500000000000D+00  0.0000000000000D+00  0.0000000000000D+00
407  4.0600000000000D+00  0.0000000000000D+00  0.0000000000000D+00
408  4.0700000000000D+00  0.0000000000000D+00  0.0000000000000D+00
409  4.0800000000000D+00  0.0000000000000D+00  0.0000000000000D+00
410  4.0900000000000D+00  0.0000000000000D+00  0.0000000000000D+00
411  4.1000000000000D+00  0.0000000000000D+00  0.0000000000000D+00
412  4.1100000000000D+00  0.0000000000000D+00  0.0000000000000D+00
413  4.1200000000000D+00  0.0000000000000D+00  0.0000000000000D+00
414  4.1300000000000D+00  0.0000000000000D+00  0.0000000000000D+00
415  4.1400000000000D+00  0.0000000000000D+00  0.0000000000000D+00
416  4.1500000000000D+00  0.0000000000000D+00  0.0000000000000D+00
417  4.1600000000000D+00  0.0000000000000D+00  0.0000000000000D+00
418  4.1700000000000D+00  0.0000000000000D+00  0.0000000000000D+00
419  4.1800000000000D+00  0.0000000000000D+00  0.0000000000000D+00
420  4.1900000000000D+00  0.0000000000000D+00  0.0000000000000D+00
421  4.2000000000000D+00  0.0000000000000D+00  0.0000000000000D+00
422  4.2100000000000D+00  0.0000000000000D+00  0.0000000000000D+00
423  4.2200000000000D+00  0.0000000000000D+00  0.0000000000000D+00
424  4.2300000000000D+00  0.0000000000000D+00  0.0000000000000D+00
425  4.2400000000000D+00  0.0000000000000D+00  0.0000000000000D+00
426  4.2500000000000D+00  0.0000000000000D+00  0.0000000000000D+00
427  4.2600000000000D+00  0.0000000000000D+00  0.0000000000000D+00
428  4.2700000000000D+00  0.0000000000000D+00  0.0000000000000D+00
429  4.2800000000000D+00  0.0000000000000D+00  0.0000000000000D+00
430  4.2900000000000D+00  0.0000000000000D+00  0.0000000000000D+00
431  4.3000000000000D+00  0.0000000000000D+00  0.0000000000000D+00
432  4.3100000000000D+00  0.0000000000000D+00  0.0000000000000D+00
433  4.3200000000000D+00  0.0000000000000D+00  0.0000000000000D+00
434  4.3300000000000D+00  0.0000000000000D+00  0.0000000000000D+00
435  4.3400000000000D+00  0.0000000000000D+00  0.0000000000000D+00
436  4.3500000000000D+00  0.0000000000000D+00  0.0000000000000D+00
437  4.3600000000000D+00  0.0000000000000D+00  0.0000000000000D+00
438  4.3700000000000D+00  0.0000000000000D+00  0.0000000000000D+00
439  4.3800000000000D+00  0.0000000000000D+00  0.0000000000000D+00
440  4.3900000000000D+00  0.0000000000000D+00  0.0000000000000D+00
441  4.4000000000000D+00  0.0000000000000D+00  0.0000000000000D+00
442  4.4100000000000D+00  0.0000000000000D+00  0.0000000000000D+00
443  4.4200000000000D+00  0.0000000000000D+00  0.0000000000000D+00