Generated by pymatgen.io.lammps.data.LammpsData

2  atoms

1  atom types

0.000000 3.823792  xlo xhi
0.000000 3.311501  ylo yhi
0.000000 3.122113  zlo zhi
1.911896 1.911896 1.103834  xy xz yz

Masses

1  28.0855

Atoms

1  1 1.950850 1.122430 0.770909
2  1 3.830101 0.020605 0.046577

