------------------------------------------------------------
          Invoking FHI-aims ...

          When using FHI-aims, please cite the following reference:

            Volker Blum, Ralf Gehrke, Felix Hanke, Paula Havu,
            Ville Havu, Xinguo Ren, Karsten Reuter, and Matthias Scheffler,
            'Ab Initio Molecular Simulations with Numeric Atom-Centered Orbitals',
            Computer Physics Communications 180, 2175-2196 (2009)

          In addition, many other developments in FHI-aims are likely important for
          your particular application. A partial list of references is given at the end of
          this file. Thank you for giving credit to the authors of these developments.

          For any questions about FHI-aims, please visit our slack channel at

            https://fhi-aims.slack.com

          and our main development and support site at

            https://aims-git.rz-berlin.mpg.de .

          The latter site, in particular, has a wiki to collect information, as well
          as an issue tracker to log discussions, suggest improvements, and report issues
          or bugs. https://aims-git.rz-berlin.mpg.de is also the main development site
          of the project and all new and updated code versions can be obtained there.
          Please send an email to aims-coordinators@fhi-berlin.mpg.de and we will add
          you to these sites. They are for you and everyone is welcome there.

------------------------------------------------------------



  Date     :  20230629, Time     :  142546.184
  Time zero on CPU 1             :   0.162111800000000E+01  s.
  Internal wall clock time zero  :           457280746.184  s.

  FHI-aims created a unique identifier for this run for later identification
  aims_uuid : 5835E2ED-ED7B-44E3-A48D-814E93767D5D

  Build configuration of the current instance of FHI-aims
  -------------------------------------------------------
  FHI-aims version      : 220309
  Commit number         : 232d594a3
  CMake host system     : Linux-5.4.0-146-generic
  CMake version         : 3.26.3
  Fortran compiler      : /home/tpurcell/intel/oneapi/mpi/2021.6.0/bin/mpiifort (Intel) version 2021.6.0.20220226
  Fortran compiler flags: -O3 -ip -fp-model precise
  C compiler            : /home/tpurcell/intel/oneapi/compiler/2022.1.0/linux/bin/intel64/icc (Intel) version 2021.6.0.20220226
  C compiler flags      : -m64 -O3 -ip -fp-model precise -std=gnu99
  Using MPI
  Using ScaLAPACK
  Using LibXC
  Using i-PI
  Using RLSY
  Linking against: /home/tpurcell/intel/oneapi/mkl/2022.1.0/lib/intel64/libmkl_scalapack_lp64.so
                   /home/tpurcell/intel/oneapi/mkl/2022.1.0/lib/intel64/libmkl_blacs_intelmpi_lp64.so
                   /home/tpurcell/intel/oneapi/mkl/2022.1.0/lib/intel64/libmkl_intel_lp64.so
                   /home/tpurcell/intel/oneapi/mkl/2022.1.0/lib/intel64/libmkl_sequential.so
                   /home/tpurcell/intel/oneapi/mkl/2022.1.0/lib/intel64/libmkl_core.so

  Using        1 parallel tasks.
  Task        0 on host nomadbook-7 reporting.

  Performing system and environment tests:
  *** Environment variable OMP_NUM_THREADS is set to
  2
  *** For performance reasons you might want to set it to 1
  | Checking for ScaLAPACK...
  | Testing pdtran()...
  | All pdtran() tests passed.

  Obtaining array dimensions for all initial allocations:

  -----------------------------------------------------------------------
  Parsing control.in (first pass over file, find array dimensions only).
  The contents of control.in will be repeated verbatim below
  unless switched off by setting 'verbatim_writeout .false.' .
  in the first line of control.in .
  -----------------------------------------------------------------------

  #===============================================================================
  # Created using the Atomic Simulation Environment (ASE)

  # Thu Jun 29 14:25:10 2023

  #===============================================================================
  xc                                 pbe
  relativistic                       atomic_zora scalar
  relax_geometry                     trm 1.000000e-03
  #===============================================================================

  ################################################################################
  #
  #  FHI-aims code project
  #  VB, Fritz-Haber Institut, 2009
  #
  #  Suggested "light" defaults for O atom (to be pasted into control.in file)
  #  Be sure to double-check any results obtained with these settings for post-processing,
  #  e.g., with the "tight" defaults and larger basis sets.
  #
  ################################################################################
    species        O
  #     global species definitions
      nucleus             8
      mass                15.9994
  #
      l_hartree           4
  #
      cut_pot             3.5  1.5  1.0
      basis_dep_cutoff    1e-4
  #
      radial_base         36 5.0
      radial_multiplier   1
       angular_grids specified
        division   0.2659   50
        division   0.4451  110
        division   0.6052  194
        division   0.7543  302
  #      division   0.8014  434
  #      division   0.8507  590
  #      division   0.8762  770
  #      division   0.9023  974
  #      division   1.2339 1202
  #      outer_grid 974
        outer_grid 302
  ################################################################################
  #
  #  Definition of "minimal" basis
  #
  ################################################################################
  #     valence basis states
      valence      2  s   2.
      valence      2  p   4.
  #     ion occupancy
      ion_occ      2  s   1.
      ion_occ      2  p   3.
  ################################################################################
  #
  #  Suggested additional basis functions. For production calculations,
  #  uncomment them one after another (the most important basis functions are
  #  listed first).
  #
  #  Constructed for dimers: 1.0 A, 1.208 A, 1.5 A, 2.0 A, 3.0 A
  #
  ################################################################################
  #  "First tier" - improvements: -699.05 meV to -159.38 meV
       hydro 2 p 1.8
       hydro 3 d 7.6
       hydro 3 s 6.4
  #  "Second tier" - improvements: -49.91 meV to -5.39 meV
  #     hydro 4 f 11.6
  #     hydro 3 p 6.2
  #     hydro 3 d 5.6
  #     hydro 5 g 17.6
  #     hydro 1 s 0.75
  #  "Third tier" - improvements: -2.83 meV to -0.50 meV
  #     ionic 2 p auto
  #     hydro 4 f 10.8
  #     hydro 4 d 4.7
  #     hydro 2 s 6.8
  #  "Fourth tier" - improvements: -0.40 meV to -0.12 meV
  #     hydro 3 p 5
  #     hydro 3 s 3.3
  #     hydro 5 g 15.6
  #     hydro 4 f 17.6
  #     hydro 4 d 14
  # Further basis functions - -0.08 meV and below
  #     hydro 3 s 2.1
  #     hydro 4 d 11.6
  #     hydro 3 p 16
  #     hydro 2 s 17.2

  -----------------------------------------------------------------------
  Completed first pass over input file control.in .
  -----------------------------------------------------------------------


  -----------------------------------------------------------------------
  Parsing geometry.in (first pass over file, find array dimensions only).
  The contents of geometry.in will be repeated verbatim below
  unless switched off by setting 'verbatim_writeout .false.' .
  in the first line of geometry.in .
  -----------------------------------------------------------------------

  #===============================================================================
  # Created using the Atomic Simulation Environment (ASE)

  # Thu Jun 29 14:25:10 2023

  #=======================================================
  atom 0.0000000000000000 0.0000000000000000 0.6229780000000000 O
      initial_moment         1.000000
  atom 0.0000000000000000 0.0000000000000000 -0.6229780000000000 O
      initial_moment         1.000000

  -----------------------------------------------------------------------
  Completed first pass over input file geometry.in .
  -----------------------------------------------------------------------


  Basic array size parameters:
  | Number of species                 :        1
  | Number of atoms                   :        2
  | Max. basis fn. angular momentum   :        2
  | Max. atomic/ionic basis occupied n:        2
  | Max. number of basis fn. types    :        2
  | Max. radial fns per species/type  :        3
  | Max. logarithmic grid size        :     1301
  | Max. radial integration grid size :       36
  | Max. angular integration grid size:      302
  | Max. angular grid division number :        8
  | Radial grid for Hartree potential :     1301
  | Number of spin channels           :        1

------------------------------------------------------------
          Reading file control.in.
------------------------------------------------------------
  XC: Using PBE gradient-corrected functionals.
  Scalar relativistic treatment of kinetic energy: on-site free-atom approximation to ZORA.
  Geometry relaxation: Modified BFGS - TRM (trust radius method) for lattice optimization.
  Convergence accuracy for geometry relaxation: Maximum force <   0.100000E-02 eV/A.

  Reading configuration options for species O                   .
  | Found nuclear charge :   8.0000
  | Found atomic mass :    15.9994000000000      amu
  | Found l_max for Hartree potential  :   4
  | Found cutoff potl. onset [A], width [A], scale factor :    3.50000    1.50000    1.00000
  | Threshold for basis-dependent cutoff potential is   0.100000E-03
  | Found data for basic radial integration grid :    36 points, outermost radius =    5.000 A
  | Found multiplier for basic radial grid :   1
  | Found angular grid specification: user-specified.
  | Specified grid contains     5 separate shells.
  | Check grid settings after all constraints further below.
  | Found free-atom valence shell :  2 s   2.000
  | Found free-atom valence shell :  2 p   4.000
  | No ionic wave fns used. Skipping ion_occ.
  | No ionic wave fns used. Skipping ion_occ.
  | Found hydrogenic basis function :  2 p   1.800
  | Found hydrogenic basis function :  3 d   7.600
  | Found hydrogenic basis function :  3 s   6.400
  Species O                   : Missing cutoff potential type.
  Defaulting to exp(1/x)/(1-x)^2 type cutoff potential.
  Species O : No 'logarithmic' tag. Using default grid for free atom:
  | Default logarithmic grid data [bohr] : 0.1000E-03 0.1000E+03 0.1012E+01
  Species O : On-site basis accuracy parameter (for Gram-Schmidt orthonormalisation) not specified.
  Using default value basis_acc =  0.1000000E-03.
  Species O                   : Using default innermost maximum threshold i_radial=  2 for radial functions.
  Species O                   : Default cutoff onset for free atom density etc. : 0.35000000E+01 AA.
  Species O                   : Basic radial grid will be enhanced according to radial_multiplier =   1, to contain    36 grid points.

  Finished reading input file 'control.in'.

------------------------------------------------------------


------------------------------------------------------------
          Reading geometry description geometry.in.
------------------------------------------------------------
 * Initial moment specified in geometry.in, but spin-unpolarized calculation requested.
 * Ignoring initial moment.
 * Initial moment specified in geometry.in, but spin-unpolarized calculation requested.
 * Ignoring initial moment.
  | The smallest distance between any two atoms is         1.24595600 AA.
  | The first atom of this pair is atom number                      1 .
  | The second atom of this pair is atom number                     2 .
  Input structure read successfully.
  The structure contains        2 atoms,  and a total of         16.000 electrons.

  Input geometry:
  | No unit cell requested.
  | Atomic structure:
  |       Atom                x [A]            y [A]            z [A]
  |    1: Species O             0.00000000        0.00000000        0.62297800
  |    2: Species O             0.00000000        0.00000000       -0.62297800


  Finished reading input file 'control.in'.


------------------------------------------------------------
          Reading geometry description geometry.in.
------------------------------------------------------------

  Consistency checks for stacksize environment parameter are next.

  | Maximum stacksize for task 0: unlimited
  | Current stacksize for task 0: unlimited

  Consistency checks for the contents of control.in are next.

  MPI_IN_PLACE appears to work with this MPI implementation.
  | Keeping use_mpi_in_place .true. (see manual).
  Target number of points in a grid batch is not set. Defaulting to  100
  Method for grid partitioning is not set. Defaulting to parallel hash+maxmin partitioning.
  Batch size limit is not set. Defaulting to    200
  By default, will store active basis functions for each batch.
  If in need of memory, prune_basis_once .false. can be used to disable this option.
  communication_type for Hartree potential was not specified.
  Defaulting to calc_hartree .
  Defaulting to Pulay charge density mixer.
  Pulay mixer: Number of relevant iterations not set.
  Defaulting to    8 iterations.
  Pulay mixer: Number of initial linear mixing iterations not set.
  Defaulting to    0 iterations.
  Work space size for distributed Hartree potential not set.
  Defaulting to   0.200000E+03 MB.
  Mixing parameter for charge density mixing has not been set.
  Using default: charge_mix_param =     0.0500.
  The mixing parameter will be adjusted in iteration number     2 of the first full s.c.f. cycle only.
  Algorithm-dependent basis array size parameters:
  | n_max_pulay                         :        8
  Maximum number of self-consistency iterations not provided.
  Presetting  1000 iterations.
  Presetting      1001 iterations before the initial mixing cycle
  is restarted anyway using the sc_init_iter criterion / keyword.
  Presetting a factor      1.000 between actual scf density residual
  and density convergence criterion sc_accuracy_rho below which sc_init_iter
  takes no effect.
 * No s.c.f. convergence criteria (sc_accuracy_*) were provided in control.in.
 * The run will proceed with a reasonable default guess, but please check whether.
 * the s.c.f. cycles seem to take too much or too little time.
  No maximum number of relaxation steps, defaulting to     1000
  Default initial Hessian is Lindh matrix (thres = 15.00) plus  0.200000E+01 eV/A^2 times unity.
  No maximum energy tolerance for TRM/BFGS moves, defaulting to   0.100000E-02
  Maximum energy tolerance by which TRM/BFGS trajectory may increase over multiple steps:   0.300000E-02
  No harmonic length scale. Defaulting to   0.250000E-01 A.
  No trust radius initializer. Defaulting to   0.200000E+00 A.
  Forces evaluation will include force correction term due to incomplete self-consistency (default).
 * Notice: The s.c.f. convergence criterion sc_accuracy_rho was not provided.
 * We used to stop in this case, and ask the user to provide reasonable
 * scf convergence criteria. However, this led some users to employ criteria
 * that led to extremely long run times, e.g., for simple relaxation.
 * We now preset a default value for sc_accuracy_rho if it is not set.
 * You may still wish to check if this setting is too tight or too loose for your needs.
 * Based on n_atoms and forces and force-correction status, FHI-aims chose sc_accuracy_rho =  0.400000E-05 .
  Force calculation: scf convergence accuracy of forces not set.
  Defaulting to 'sc_accuracy_forces not_checked'.
  Handling of forces: Unphysical translation and rotation will be removed from forces.
  No accuracy limit for integral partition fn. given. Defaulting to  0.1000E-14.
  No threshold value for u(r) in integrations given. Defaulting to  0.1000E-05.
  No occupation type (smearing scheme) given. Defaulting to Gaussian broadening, width =  0.1000E-01 eV.
  The width will be adjusted in iteration number     2 of the first full s.c.f. cycle only.
  S.C.F. convergence parameters will be adjusted in iteration number     2 of the first full s.c.f. cycle only.
  No accuracy for occupation numbers given. Defaulting to  0.1000E-12.
  No threshold value for occupation numbers given. Defaulting to  0.0000E+00.
  No accuracy for fermi level given. Defaulting to  0.1000E-19.
  Maximum # of iterations to find E_F not set. Defaulting to  200.
  Preferred method for the eigenvalue solver ('KS_method') not specified in 'control.in'.
  Defaulting to serial version LAPACK (via ELSI).
  Will not use alltoall communication since running on < 1024 CPUs.
  Threshold for basis singularities not set.
  Default threshold for basis singularities:  0.1000E-04
  partition_type (choice of integration weights) for integrals was not specified.
  | Using a version of the partition function of Stratmann and coworkers ('stratmann_sparse').
  | At each grid point, the set of atoms used to build the partition table is smoothly restricted to
  | only those atoms whose free-atom density would be non-zero at that grid point.
  Partitioning for Hartree potential was not defined. Using partition_type for integrals.
  | Adjusted default value of keyword multip_moments_threshold to:       0.10000000E-11
  | This value may affect high angular momentum components of the Hartree potential in periodic systems.
  Spin handling was not defined in control.in. Defaulting to unpolarized case.
  No q(lm)/r^(l+1) cutoff set for long-range Hartree potential.
  | Using default value of  0.100000E-09 .
  | Verify using the multipole_threshold keyword.
  Defaulting to new monopole extrapolation.
  Density update method: automatic selection selected.
  Geometry relaxation: A file "geometry.in.next_step" is written out by default after each step.
  | This file contains the geometry of the current relaxation step as well as
  | the current Hessian matrix needed to restart the relaxation algorithm.
  | If you do not want part or all of this information, use the keywords
  | "write_restart_geometry" or "hessian_to_restart_geometry" to switch the output off.
  Charge integration errors on the 3D integration grid will be compensated
  by explicit normalization and distribution of residual charges.
  Use the "compensate_multipole_errors" flag to change this behaviour.
  Set 'collect_eigenvectors' to be '.true.' for all serial calculations. This is mandatory.
  Set 'collect_eigenvectors' to be '.true.' for use_density_matrix .false.
  Set 'collect_eigenvectors' to be '.true.' for KS_method lapack_fast and serial.

  Consistency checks for the contents of geometry.in are next.

  Number of empty states per atom not set in control.in - providing a guess from actual geometry.
  | Total number of empty states used during s.c.f. cycle:        6
  If you use a very high smearing, use empty_states (per atom!) in control.in to increase this value.

  Structure-dependent array size parameters:
  | Maximum number of distinct radial functions  :        6
  | Maximum number of basis functions            :       28
  | Number of Kohn-Sham states (occupied + empty):       14
------------------------------------------------------------

------------------------------------------------------------
          Preparing all fixed parts of the calculation.
------------------------------------------------------------
  Determining machine precision:
    2.225073858507201E-308
  Setting up grids for atomic and cluster calculations.

  Creating wave function, potential, and density for free atoms.
  Runtime choices for atomic solver:
  | atomic solver xc        : PBE
  | compute density gradient: 1
  | compute kinetic density : F

  Species: O

  List of occupied orbitals and eigenvalues:
    n    l              occ      energy [Ha]    energy [eV]
    1    0           2.0000       -18.926989      -515.0296
    2    0           2.0000        -0.880247       -23.9527
    2    1           4.0000        -0.331514        -9.0210


  Adding cutoff potential to free-atom effective potential.
  Creating fixed part of basis set: Ionic, confined, hydrogenic.

  O                    hydrogenic:

  List of hydrogenic basis orbitals:
    n    l      effective z      eigenvalue [eV]  inner max. [A]     outer max. [A]     outer radius [A]
    2    1         1.800000       -10.9749           1.164242           1.164242           4.578029
    3    2         7.600000       -87.3180           0.624125           0.624125           3.251020
    3    0         6.400000       -61.9207           0.061167           1.081902           4.001998

  Creating atomic-like basis functions for current effective potential.

  Species O                   :

  List of atomic basis orbitals and eigenvalues:
    n    l      energy [Ha]    energy [eV]    outer radius [A]
    1    0       -18.926989      -515.0296       1.415765
    2    0        -0.880247       -23.9527       4.413171
    2    1        -0.331514        -9.0210       4.522403

  Assembling full basis from fixed parts.
  | Species O :   atomic orbital   1 s accepted.
  | Species O :    hydro orbital   3 s accepted.
  | Species O :   atomic orbital   2 s accepted.
  | Species O :   atomic orbital   2 p accepted.
  | Species O :    hydro orbital   2 p accepted.
  | Species O :    hydro orbital   3 d accepted.

  Basis size parameters after reduction:
  | Total number of radial functions:        6
  | Total number of basis functions :       28

  Per-task memory consumption for arrays in subroutine allocate_ext:
  |           1.999316MB.
  Testing on-site integration grid accuracy.
  |  Species  Function  <phi|h_atom|phi> (log., in eV)  <phi|h_atom|phi> (rad., in eV)
           1        1               -515.0295626295               -515.0294562738
           1        2                 15.1698434419                 15.1699322204
           1        3                -21.6038822678                -21.6039118105
           1        4                 -9.0211123393                 -9.0212703513
           1        5                  8.3047696391                  8.2854840999
           1        6                 45.8428042125                 45.8427461222

  Preparing densities etc. for the partition functions (integrals / Hartree potential).

  Preparations completed.
  max(cpu_time)          :      0.049 s.
  Wall clock time (cpu1) :      0.049 s.
------------------------------------------------------------

------------------------------------------------------------
          Begin self-consistency loop: Initialization.

          Date     :  20230629, Time     :  142546.240
------------------------------------------------------------

  Initializing index lists of integration centers etc. from given atomic structure:
  | Number of centers in hartree potential         :         2
  | Number of centers in hartree multipole         :         2
  | Number of centers in electron density summation:         2
  | Number of centers in basis integrals           :         2
  | Number of centers in integrals                 :         2
  | Number of centers in hamiltonian               :         2

  Initializing relaxation algorithms.
  Finished initialization of distributed Hessian storage.
  | Global dimension:         6
  | BLACS block size:         6
  | Number of workers:        1

  Partitioning the integration grid into batches with parallel hashing+maxmin method.
  | Number of batches:      182
  | Maximal batch size:     107
  | Minimal batch size:      49
  | Average batch size:      70.813
  | Standard deviation of batch sizes:      21.755

  Integration load balanced across     1 MPI tasks.
  Work distribution over tasks is as follows:
  Task     0 has      12888 integration points.
  Initializing partition tables, free-atom densities, potentials, etc. across the integration grid (initialize_grid_storage).
  | initialize_grid_storage: Actual outermost partition radius vs. multipole_radius_free
  | (-- VB: in principle, multipole_radius_free should be larger, hence this output)
  | Species        1: Confinement radius =              4.999999999999999 AA, multipole_radius_free =              5.048384829883283 AA.
  | Species        1: outer_partition_radius set to              5.048384829883283 AA .
  | The sparse table of interatomic distances needs          0.04 kbyte instead of         0.03 kbyte of memory.
  | Using the partition_type stratmann_smoother will reduce your memory usage.
  | Net number of integration points:    12888
  | of which are non-zero points    :    12288
  Renormalizing the initial density to the exact electron count on the 3D integration grid.
  | Initial density: Formal number of electrons (from input files) :      16.0000000000
  | Integrated number of electrons on 3D grid     :      15.9999868661
  | Charge integration error                      :      -0.0000131339
  | Normalization factor for density and gradient :       1.0000008209
  Renormalizing the free-atom superposition density to the exact electron count on the 3D integration grid.
  | Formal number of electrons (from input files) :      16.0000000000
  | Integrated number of electrons on 3D grid     :      15.9999868661
  | Charge integration error                      :      -0.0000131339
  | Normalization factor for density and gradient :       1.0000008209
  Obtaining max. number of non-zero basis functions in each batch (get_n_compute_maxes).
  | Maximal number of non-zero basis functions:       28 in task     0
  Selecting the method for density update.
  Loop over occupied states selected for charge density update.
  Allocating        0.003 MB for KS_eigenvector
  Integrating Hamiltonian matrix: batch-based integration.
  Time summed over all CPUs for integration: real work        0.017 s, elapsed        0.017 s
  Integrating overlap matrix.
  Time summed over all CPUs for integration: real work        0.005 s, elapsed        0.005 s

  Updating Kohn-Sham eigenvalues and eigenvectors using ELSI and the (modified) LAPACK eigensolver.
  Overlap matrix is not singular
  | Lowest and highest eigenvalues :  0.4142E-01,  0.1959E+01
  Finished singularity check of overlap matrix
  | Time :     0.000 s
  Starting LAPACK eigensolver
  Finished Cholesky decomposition
  | Time :     0.000 s
  Finished transformation to standard eigenproblem
  | Time :     0.000 s
  Finished solving standard eigenproblem
  | Time :     0.000 s
  Finished back-transformation of eigenvectors
  | Time :     0.000 s

  Obtaining occupation numbers and chemical potential using ELSI.
  | Chemical potential (Fermi level):    -6.72048960 eV
  Writing Kohn-Sham eigenvalues.

  State    Occupation    Eigenvalue [Ha]    Eigenvalue [eV]
      1       2.00000         -18.957719         -515.86578
      2       2.00000         -18.957672         -515.86450
      3       2.00000          -1.160344          -31.57458
      4       2.00000          -0.769514          -20.93955
      5       2.00000          -0.508932          -13.84876
      6       2.00000          -0.469843          -12.78507
      7       2.00000          -0.469843          -12.78507
      8       1.00000          -0.246973           -6.72049
      9       1.00000          -0.246973           -6.72049
     10       0.00000           0.067070            1.82508
     11       0.00000           0.242953            6.61108
     12       0.00000           0.261559            7.11737
     13       0.00000           0.261559            7.11737
     14       0.00000           0.390604           10.62887

  Highest occupied state (VBM) at     -6.72048960 eV
  | Occupation number:      1.00000000

  Lowest unoccupied state (CBM) at    -6.72048960 eV
  | Occupation number:      1.00000000

  Overall HOMO-LUMO gap:      0.00000000 eV.
  This system has fractional occupation numbers. Thus, it is a degenerate system
  within the approximate finite broadening function (occupation_type)
  applied to determine the occupation numbers.
  This may not be harmful. However, for some systems (free atoms), a different, non-degenerate
  ground state might exist by using a smaller broadening (see keyword occupation_type).
  Calculating total energy contributions from superposition of free atom densities.

  Total energy components:
  | Sum of eigenvalues            :         -83.08168128 Ha       -2260.76757433 eV
  | XC energy correction          :         -16.76189407 Ha        -456.11434449 eV
  | XC potential correction       :          21.54545624 Ha         586.28169396 eV
  | Free-atom electrostatic energy:         -72.09217047 Ha       -1961.72776997 eV
  | Hartree energy correction     :           0.00000000 Ha           0.00000000 eV
  | Entropy correction            :          -0.00020734 Ha          -0.00564190 eV
  | ---------------------------
  | Total energy                  :        -150.39028958 Ha       -4092.32799484 eV
  | Total energy, T -> 0          :        -150.39049692 Ha       -4092.33363673 eV  <-- do not rely on this value for anything but (periodic) metals
  | Electronic free energy        :        -150.39070425 Ha       -4092.33927863 eV

  Derived energy quantities:
  | Kinetic energy                :         150.05932873 Ha        4083.32209185 eV
  | Electrostatic energy          :        -283.68772424 Ha       -7719.53574219 eV
  | Energy correction for multipole
  | error in Hartree potential    :           0.00000000 Ha           0.00000000 eV
  | Sum of eigenvalues per atom                           :       -1130.38378717 eV
  | Total energy (T->0) per atom                          :       -2046.16681837 eV  <-- do not rely on this value for anything but (periodic) metals
  | Electronic free energy per atom                       :       -2046.16963931 eV
  Initialize hartree_potential_storage
  Max. number of atoms included in rho_multipole:            2

  End scf initialization - timings             :  max(cpu_time)    wall_clock(cpu1)
  | Time for scf. initialization                :        0.044 s           0.044 s
  | Boundary condition initialization           :        0.000 s           0.000 s
  | Relaxation initialization                   :        0.000 s           0.000 s
  | Integration                                 :        0.022 s           0.022 s
  | Solution of K.-S. eqns.                     :        0.001 s           0.000 s
  | Grid partitioning                           :        0.010 s           0.010 s
  | Preloading free-atom quantities on grid     :        0.006 s           0.006 s
  | Free-atom superposition energy              :        0.006 s           0.006 s
  | Total energy evaluation                     :        0.000 s           0.000 s

  Partial memory accounting:
  | Current value for overall tracked memory usage:
  |   Minimum:        0.010 MB (on task 0)
  |   Maximum:        0.010 MB (on task 0)
  |   Average:        0.010 MB
  | Peak value for overall tracked memory usage:
  |   Minimum:        0.444 MB (on task 0 after allocating grid_partition)
  |   Maximum:        0.444 MB (on task 0 after allocating grid_partition)
  |   Average:        0.444 MB
  | Largest tracked array allocation so far:
  |   Minimum:        0.295 MB (all_coords on task 0)
  |   Maximum:        0.295 MB (all_coords on task 0)
  |   Average:        0.295 MB
  Note:  These values currently only include a subset of arrays which are explicitly tracked.
  The "true" memory usage will be greater.
------------------------------------------------------------
  Evaluating new KS density.
  Integration grid: deviation in total charge (<rho> - N_e) =   3.552714E-15

  Time for density update prior                :  max(cpu_time)    wall_clock(cpu1)
  | self-consistency iterative process          :        0.011 s           0.012 s

------------------------------------------------------------
          Begin self-consistency iteration #    1

  Date     :  20230629, Time     :  142546.296
------------------------------------------------------------
  Pulay mixing of updated and previous charge densities.
  Renormalizing the density to the exact electron count on the 3D integration grid.
  | Formal number of electrons (from input files) :      16.0000000000
  | Integrated number of electrons on 3D grid     :      16.0000000000
  | Charge integration error                      :      -0.0000000000
  | Normalization factor for density and gradient :       1.0000000000

  Evaluating partitioned Hartree potential by multipole expansion.
  | Original multipole sum: apparent total charge =  -0.150174E-12
  | Sum of charges compensated after spline to logarithmic grids =   0.132184E-05
  | Analytical far-field extrapolation by fixed multipoles:
  | Hartree multipole sum: apparent total charge =  -0.150173E-12
  Summing up the Hartree potential.
  Time summed over all CPUs for potential: real work        0.004 s, elapsed        0.004 s
  | RMS charge density error from multipole expansion :   0.242585E-03

  Integrating Hamiltonian matrix: batch-based integration.
  Time summed over all CPUs for integration: real work        0.017 s, elapsed        0.017 s

  Updating Kohn-Sham eigenvalues and eigenvectors using ELSI and the (modified) LAPACK eigensolver.
  Starting LAPACK eigensolver
  Finished Cholesky decomposition
  | Time :     0.000 s
  Finished transformation to standard eigenproblem
  | Time :     0.000 s
  Finished solving standard eigenproblem
  | Time :     0.000 s
  Finished back-transformation of eigenvectors
  | Time :     0.000 s

  Obtaining occupation numbers and chemical potential using ELSI.
  | Chemical potential (Fermi level):    -6.67375082 eV
  Writing Kohn-Sham eigenvalues.

  State    Occupation    Eigenvalue [Ha]    Eigenvalue [eV]
      1       2.00000         -18.954764         -515.78538
      2       2.00000         -18.954718         -515.78411
      3       2.00000          -1.160726          -31.58497
      4       2.00000          -0.767024          -20.87180
      5       2.00000          -0.506746          -13.78926
      6       2.00000          -0.468816          -12.75712
      7       2.00000          -0.468816          -12.75712
      8       1.00000          -0.245256           -6.67375
      9       1.00000          -0.245256           -6.67375
     10       0.00000           0.067632            1.84037
     11       0.00000           0.244175            6.64434
     12       0.00000           0.262140            7.13320
     13       0.00000           0.262140            7.13320
     14       0.00000           0.391290           10.64753

  Highest occupied state (VBM) at     -6.67375082 eV
  | Occupation number:      1.00000000

  Lowest unoccupied state (CBM) at    -6.67375082 eV
  | Occupation number:      1.00000000

  Overall HOMO-LUMO gap:      0.00000000 eV.
  This system has fractional occupation numbers. Thus, it is a degenerate system
  within the approximate finite broadening function (occupation_type)
  applied to determine the occupation numbers.
  This may not be harmful. However, for some systems (free atoms), a different, non-degenerate
  ground state might exist by using a smaller broadening (see keyword occupation_type).

  Total energy components:
  | Sum of eigenvalues            :         -83.05373165 Ha       -2260.00702598 eV
  | XC energy correction          :         -16.76670599 Ha        -456.24528351 eV
  | XC potential correction       :          21.55172411 Ha         586.45225145 eV
  | Free-atom electrostatic energy:         -72.09217047 Ha       -1961.72776997 eV
  | Hartree energy correction     :          -0.02802358 Ha          -0.76256052 eV
  | Entropy correction            :          -0.00020734 Ha          -0.00564190 eV
  | ---------------------------
  | Total energy                  :        -150.38890757 Ha       -4092.29038851 eV
  | Total energy, T -> 0          :        -150.38911491 Ha       -4092.29603041 eV  <-- do not rely on this value for anything but (periodic) metals
  | Electronic free energy        :        -150.38932225 Ha       -4092.30167230 eV

  Derived energy quantities:
  | Kinetic energy                :         150.07944132 Ha        4083.86938324 eV
  | Electrostatic energy          :        -283.70164290 Ha       -7719.91448824 eV
  | Energy correction for multipole
  | error in Hartree potential    :           0.00035201 Ha           0.00957881 eV
  | Sum of eigenvalues per atom                           :       -1130.00351299 eV
  | Total energy (T->0) per atom                          :       -2046.14801520 eV  <-- do not rely on this value for anything but (periodic) metals
  | Electronic free energy per atom                       :       -2046.15083615 eV
  Evaluating new KS density.
  Integration grid: deviation in total charge (<rho> - N_e) =   2.842171E-14

  Self-consistency convergence accuracy:
  | Change of charge density      :  0.1728E+00
  | Change of sum of eigenvalues  :  0.7605E+00 eV
  | Change of total energy        :  0.3761E-01 eV


------------------------------------------------------------
  End self-consistency iteration #     1       :  max(cpu_time)    wall_clock(cpu1)
  | Time for this iteration                     :        0.035 s           0.035 s
  | Charge density update                       :        0.011 s           0.011 s
  | Density mixing                              :        0.001 s           0.000 s
  | Hartree multipole update                    :        0.001 s           0.002 s
  | Hartree multipole summation                 :        0.005 s           0.004 s
  | Integration                                 :        0.017 s           0.018 s
  | Solution of K.-S. eqns.                     :        0.000 s           0.000 s
  | Total energy evaluation                     :        0.000 s           0.000 s

  Partial memory accounting:
  | Current value for overall tracked memory usage:
  |   Minimum:        0.010 MB (on task 0)
  |   Maximum:        0.010 MB (on task 0)
  |   Average:        0.010 MB
  | Peak value for overall tracked memory usage:
  |   Minimum:        0.444 MB (on task 0 after allocating grid_partition)
  |   Maximum:        0.444 MB (on task 0 after allocating grid_partition)
  |   Average:        0.444 MB
  | Largest tracked array allocation so far:
  |   Minimum:        0.295 MB (all_coords on task 0)
  |   Maximum:        0.295 MB (all_coords on task 0)
  |   Average:        0.295 MB
  Note:  These values currently only include a subset of arrays which are explicitly tracked.
  The "true" memory usage will be greater.
------------------------------------------------------------

------------------------------------------------------------
          Begin self-consistency iteration #    2

  Date     :  20230629, Time     :  142546.331
------------------------------------------------------------
  Pulay mixing of updated and previous charge densities.
  Renormalizing the density to the exact electron count on the 3D integration grid.
  | Formal number of electrons (from input files) :      16.0000000000
  | Integrated number of electrons on 3D grid     :      16.0000000000
  | Charge integration error                      :      -0.0000000000
  | Normalization factor for density and gradient :       1.0000000000

  Evaluating partitioned Hartree potential by multipole expansion.
  | Original multipole sum: apparent total charge =  -0.720203E-13
  | Sum of charges compensated after spline to logarithmic grids =   0.194788E-04
  | Analytical far-field extrapolation by fixed multipoles:
  | Hartree multipole sum: apparent total charge =  -0.720258E-13
  Summing up the Hartree potential.
  Time summed over all CPUs for potential: real work        0.005 s, elapsed        0.005 s
  | RMS charge density error from multipole expansion :   0.365939E-02

  Integrating Hamiltonian matrix: batch-based integration.
  Time summed over all CPUs for integration: real work        0.017 s, elapsed        0.017 s

  Updating Kohn-Sham eigenvalues and eigenvectors using ELSI and the (modified) LAPACK eigensolver.
  Starting LAPACK eigensolver
  Finished Cholesky decomposition
  | Time :     0.000 s
  Finished transformation to standard eigenproblem
  | Time :     0.000 s
  Finished solving standard eigenproblem
  | Time :     0.000 s
  Finished back-transformation of eigenvectors
  | Time :     0.000 s

  Obtaining occupation numbers and chemical potential using ELSI.
  | Chemical potential (Fermi level):    -6.03623435 eV
  Highest occupied state (VBM) at     -6.03623435 eV
  | Occupation number:      1.00000000

  Lowest unoccupied state (CBM) at    -6.03623435 eV
  | Occupation number:      1.00000000

  Overall HOMO-LUMO gap:      0.00000000 eV.
  This system has fractional occupation numbers. Thus, it is a degenerate system
  within the approximate finite broadening function (occupation_type)
  applied to determine the occupation numbers.
  This may not be harmful. However, for some systems (free atoms), a different, non-degenerate
  ground state might exist by using a smaller broadening (see keyword occupation_type).

  Checking to see if s.c.f. parameters should be adjusted.
  Adjusted the Pulay mixing parameter (charge_mix_param) for an expected low-gap system. New value:   0.020000 .
  Adjusted the occupation broadening width for an expected low-gap system. New value:      0.05000000 eV.

  Total energy components:
  | Sum of eigenvalues            :         -82.67622589 Ha       -2249.73457165 eV
  | XC energy correction          :         -16.83605348 Ha        -458.13232476 eV
  | XC potential correction       :          21.64197359 Ha         588.90806480 eV
  | Free-atom electrostatic energy:         -72.09217047 Ha       -1961.72776997 eV
  | Hartree energy correction     :          -0.41859149 Ha         -11.39045391 eV
  | Entropy correction            :          -0.00103668 Ha          -0.02820948 eV
  | ---------------------------
  | Total energy                  :        -150.38106773 Ha       -4092.07705549 eV
  | Total energy, T -> 0          :        -150.38210441 Ha       -4092.10526497 eV  <-- do not rely on this value for anything but (periodic) metals
  | Electronic free energy        :        -150.38314109 Ha       -4092.13347445 eV

  Derived energy quantities:
  | Kinetic energy                :         150.32443218 Ha        4090.53592371 eV
  | Electrostatic energy          :        -283.86944642 Ha       -7724.48065444 eV
  | Energy correction for multipole
  | error in Hartree potential    :           0.00527930 Ha           0.14365716 eV
  | Sum of eigenvalues per atom                           :       -1124.86728583 eV
  | Total energy (T->0) per atom                          :       -2046.05263248 eV  <-- do not rely on this value for anything but (periodic) metals
  | Electronic free energy per atom                       :       -2046.06673722 eV
  Evaluating new KS density.
  Integration grid: deviation in total charge (<rho> - N_e) =   0.000000E+00

  Self-consistency convergence accuracy:
  | Change of charge density      :  0.1616E+00
  | Change of sum of eigenvalues  :  0.1027E+02 eV
  | Change of total energy        :  0.2133E+00 eV


------------------------------------------------------------
  End self-consistency iteration #     2       :  max(cpu_time)    wall_clock(cpu1)
  | Time for this iteration                     :        0.035 s           0.035 s
  | Charge density update                       :        0.010 s           0.010 s
  | Density mixing                              :        0.001 s           0.001 s
  | Hartree multipole update                    :        0.001 s           0.001 s
  | Hartree multipole summation                 :        0.005 s           0.005 s
  | Integration                                 :        0.017 s           0.017 s
  | Solution of K.-S. eqns.                     :        0.000 s           0.001 s
  | Total energy evaluation                     :        0.000 s           0.000 s

  Partial memory accounting:
  | Current value for overall tracked memory usage:
  |   Minimum:        0.011 MB (on task 0)
  |   Maximum:        0.011 MB (on task 0)
  |   Average:        0.011 MB
  | Peak value for overall tracked memory usage:
  |   Minimum:        0.444 MB (on task 0 after allocating grid_partition)
  |   Maximum:        0.444 MB (on task 0 after allocating grid_partition)
  |   Average:        0.444 MB
  | Largest tracked array allocation so far:
  |   Minimum:        0.295 MB (all_coords on task 0)
  |   Maximum:        0.295 MB (all_coords on task 0)
  |   Average:        0.295 MB
  Note:  These values currently only include a subset of arrays which are explicitly tracked.
  The "true" memory usage will be greater.
------------------------------------------------------------

------------------------------------------------------------
          Begin self-consistency iteration #    3

  Date     :  20230629, Time     :  142546.366
------------------------------------------------------------
  Pulay mixing of updated and previous charge densities.
  Renormalizing the density to the exact electron count on the 3D integration grid.
  | Formal number of electrons (from input files) :      16.0000000000
  | Integrated number of electrons on 3D grid     :      16.0000000000
  | Charge integration error                      :      -0.0000000000
  | Normalization factor for density and gradient :       1.0000000000

  Evaluating partitioned Hartree potential by multipole expansion.
  | Original multipole sum: apparent total charge =  -0.304539E-13
  | Sum of charges compensated after spline to logarithmic grids =   0.167214E-04
  | Analytical far-field extrapolation by fixed multipoles:
  | Hartree multipole sum: apparent total charge =  -0.304456E-13
  Summing up the Hartree potential.
  Time summed over all CPUs for potential: real work        0.005 s, elapsed        0.005 s
  | RMS charge density error from multipole expansion :   0.463934E-02

  Integrating Hamiltonian matrix: batch-based integration.
  Time summed over all CPUs for integration: real work        0.017 s, elapsed        0.017 s

  Updating Kohn-Sham eigenvalues and eigenvectors using ELSI and the (modified) LAPACK eigensolver.
  Starting LAPACK eigensolver
  Finished Cholesky decomposition
  | Time :     0.000 s
  Finished transformation to standard eigenproblem
  | Time :     0.000 s
  Finished solving standard eigenproblem
  | Time :     0.000 s
  Finished back-transformation of eigenvectors
  | Time :     0.000 s

  Obtaining occupation numbers and chemical potential using ELSI.
  | Chemical potential (Fermi level):    -6.16414611 eV
  Highest occupied state (VBM) at     -6.16414611 eV
  | Occupation number:      1.00000000

  Lowest unoccupied state (CBM) at    -6.16414611 eV
  | Occupation number:      1.00000000

  Overall HOMO-LUMO gap:      0.00000000 eV.
  This system has fractional occupation numbers. Thus, it is a degenerate system
  within the approximate finite broadening function (occupation_type)
  applied to determine the occupation numbers.
  This may not be harmful. However, for some systems (free atoms), a different, non-degenerate
  ground state might exist by using a smaller broadening (see keyword occupation_type).

  Total energy components:
  | Sum of eigenvalues            :         -82.79963307 Ha       -2253.09265186 eV
  | XC energy correction          :         -16.81678700 Ha        -457.60805703 eV
  | XC potential correction       :          21.61681528 Ha         588.22347230 eV
  | Free-atom electrostatic energy:         -72.09217047 Ha       -1961.72776997 eV
  | Hartree energy correction     :          -0.28906266 Ha          -7.86579518 eV
  | Entropy correction            :          -0.00103668 Ha          -0.02820948 eV
  | ---------------------------
  | Total energy                  :        -150.38083791 Ha       -4092.07080173 eV
  | Total energy, T -> 0          :        -150.38187459 Ha       -4092.09901121 eV  <-- do not rely on this value for anything but (periodic) metals
  | Electronic free energy        :        -150.38291127 Ha       -4092.12722069 eV

  Derived energy quantities:
  | Kinetic energy                :         150.09860432 Ha        4084.39083501 eV
  | Electrostatic energy          :        -283.66265523 Ha       -7718.85357971 eV
  | Energy correction for multipole
  | error in Hartree potential    :           0.00653658 Ha           0.17786935 eV
  | Sum of eigenvalues per atom                           :       -1126.54632593 eV
  | Total energy (T->0) per atom                          :       -2046.04950560 eV  <-- do not rely on this value for anything but (periodic) metals
  | Electronic free energy per atom                       :       -2046.06361034 eV
  Evaluating new KS density.
  Integration grid: deviation in total charge (<rho> - N_e) =  -3.730349E-14

  Self-consistency convergence accuracy:
  | Change of charge density      :  0.3264E-01
  | Change of sum of eigenvalues  : -0.3358E+01 eV
  | Change of total energy        :  0.6254E-02 eV


------------------------------------------------------------
  End self-consistency iteration #     3       :  max(cpu_time)    wall_clock(cpu1)
  | Time for this iteration                     :        0.036 s           0.036 s
  | Charge density update                       :        0.011 s           0.011 s
  | Density mixing                              :        0.001 s           0.002 s
  | Hartree multipole update                    :        0.001 s           0.001 s
  | Hartree multipole summation                 :        0.005 s           0.005 s
  | Integration                                 :        0.017 s           0.017 s
  | Solution of K.-S. eqns.                     :        0.000 s           0.000 s
  | Total energy evaluation                     :        0.000 s           0.000 s

  Partial memory accounting:
  | Current value for overall tracked memory usage:
  |   Minimum:        0.011 MB (on task 0)
  |   Maximum:        0.011 MB (on task 0)
  |   Average:        0.011 MB
  | Peak value for overall tracked memory usage:
  |   Minimum:        0.444 MB (on task 0 after allocating grid_partition)
  |   Maximum:        0.444 MB (on task 0 after allocating grid_partition)
  |   Average:        0.444 MB
  | Largest tracked array allocation so far:
  |   Minimum:        0.295 MB (all_coords on task 0)
  |   Maximum:        0.295 MB (all_coords on task 0)
  |   Average:        0.295 MB
  Note:  These values currently only include a subset of arrays which are explicitly tracked.
  The "true" memory usage will be greater.
------------------------------------------------------------

------------------------------------------------------------
          Begin self-consistency iteration #    4

  Date     :  20230629, Time     :  142546.402
------------------------------------------------------------
  Pulay mixing of updated and previous charge densities.
  Renormalizing the density to the exact electron count on the 3D integration grid.
  | Formal number of electrons (from input files) :      16.0000000000
  | Integrated number of electrons on 3D grid     :      16.0000000000
  | Charge integration error                      :       0.0000000000
  | Normalization factor for density and gradient :       1.0000000000

  Evaluating partitioned Hartree potential by multipole expansion.
  | Original multipole sum: apparent total charge =   0.146859E-12
  | Sum of charges compensated after spline to logarithmic grids =   0.170235E-04
  | Analytical far-field extrapolation by fixed multipoles:
  | Hartree multipole sum: apparent total charge =   0.146808E-12
  Summing up the Hartree potential.
  Time summed over all CPUs for potential: real work        0.005 s, elapsed        0.005 s
  | RMS charge density error from multipole expansion :   0.469281E-02

  Integrating Hamiltonian matrix: batch-based integration.
  Time summed over all CPUs for integration: real work        0.017 s, elapsed        0.017 s

  Updating Kohn-Sham eigenvalues and eigenvectors using ELSI and the (modified) LAPACK eigensolver.
  Starting LAPACK eigensolver
  Finished Cholesky decomposition
  | Time :     0.000 s
  Finished transformation to standard eigenproblem
  | Time :     0.000 s
  Finished solving standard eigenproblem
  | Time :     0.000 s
  Finished back-transformation of eigenvectors
  | Time :     0.000 s

  Obtaining occupation numbers and chemical potential using ELSI.
  | Chemical potential (Fermi level):    -6.15311658 eV
  Highest occupied state (VBM) at     -6.15311658 eV
  | Occupation number:      1.00000000

  Lowest unoccupied state (CBM) at    -6.15311658 eV
  | Occupation number:      1.00000000

  Overall HOMO-LUMO gap:      0.00000000 eV.
  This system has fractional occupation numbers. Thus, it is a degenerate system
  within the approximate finite broadening function (occupation_type)
  applied to determine the occupation numbers.
  This may not be harmful. However, for some systems (free atoms), a different, non-degenerate
  ground state might exist by using a smaller broadening (see keyword occupation_type).

  Total energy components:
  | Sum of eigenvalues            :         -82.79293184 Ha       -2252.91030212 eV
  | XC energy correction          :         -16.81805013 Ha        -457.64242866 eV
  | XC potential correction       :          21.61845733 Ha         588.26815462 eV
  | Free-atom electrostatic energy:         -72.09217047 Ha       -1961.72776997 eV
  | Hartree energy correction     :          -0.29613185 Ha          -8.05815751 eV
  | Entropy correction            :          -0.00103668 Ha          -0.02820948 eV
  | ---------------------------
  | Total energy                  :        -150.38082695 Ha       -4092.07050364 eV
  | Total energy, T -> 0          :        -150.38186363 Ha       -4092.09871312 eV  <-- do not rely on this value for anything but (periodic) metals
  | Electronic free energy        :        -150.38290031 Ha       -4092.12692260 eV

  Derived energy quantities:
  | Kinetic energy                :         150.10308828 Ha        4084.51284978 eV
  | Electrostatic energy          :        -283.66586510 Ha       -7718.94092476 eV
  | Energy correction for multipole
  | error in Hartree potential    :           0.00661417 Ha           0.17998078 eV
  | Sum of eigenvalues per atom                           :       -1126.45515106 eV
  | Total energy (T->0) per atom                          :       -2046.04935656 eV  <-- do not rely on this value for anything but (periodic) metals
  | Electronic free energy per atom                       :       -2046.06346130 eV
  Evaluating new KS density.
  Integration grid: deviation in total charge (<rho> - N_e) =   4.973799E-14

  Self-consistency convergence accuracy:
  | Change of charge density      :  0.8504E-02
  | Change of sum of eigenvalues  :  0.1823E+00 eV
  | Change of total energy        :  0.2981E-03 eV


------------------------------------------------------------
  End self-consistency iteration #     4       :  max(cpu_time)    wall_clock(cpu1)
  | Time for this iteration                     :        0.037 s           0.037 s
  | Charge density update                       :        0.012 s           0.011 s
  | Density mixing                              :        0.002 s           0.002 s
  | Hartree multipole update                    :        0.001 s           0.001 s
  | Hartree multipole summation                 :        0.005 s           0.006 s
  | Integration                                 :        0.017 s           0.017 s
  | Solution of K.-S. eqns.                     :        0.000 s           0.000 s
  | Total energy evaluation                     :        0.000 s           0.000 s

  Partial memory accounting:
  | Current value for overall tracked memory usage:
  |   Minimum:        0.011 MB (on task 0)
  |   Maximum:        0.011 MB (on task 0)
  |   Average:        0.011 MB
  | Peak value for overall tracked memory usage:
  |   Minimum:        0.444 MB (on task 0 after allocating grid_partition)
  |   Maximum:        0.444 MB (on task 0 after allocating grid_partition)
  |   Average:        0.444 MB
  | Largest tracked array allocation so far:
  |   Minimum:        0.295 MB (all_coords on task 0)
  |   Maximum:        0.295 MB (all_coords on task 0)
  |   Average:        0.295 MB
  Note:  These values currently only include a subset of arrays which are explicitly tracked.
  The "true" memory usage will be greater.
------------------------------------------------------------

------------------------------------------------------------
          Begin self-consistency iteration #    5

  Date     :  20230629, Time     :  142546.440
------------------------------------------------------------
  Pulay mixing of updated and previous charge densities.
  Renormalizing the density to the exact electron count on the 3D integration grid.
  | Formal number of electrons (from input files) :      16.0000000000
  | Integrated number of electrons on 3D grid     :      16.0000000000
  | Charge integration error                      :       0.0000000000
  | Normalization factor for density and gradient :       1.0000000000

  Evaluating partitioned Hartree potential by multipole expansion.
  | Original multipole sum: apparent total charge =   0.222881E-13
  | Sum of charges compensated after spline to logarithmic grids =   0.179067E-04
  | Analytical far-field extrapolation by fixed multipoles:
  | Hartree multipole sum: apparent total charge =   0.222372E-13
  Summing up the Hartree potential.
  Time summed over all CPUs for potential: real work        0.005 s, elapsed        0.005 s
  | RMS charge density error from multipole expansion :   0.483264E-02

  Integrating Hamiltonian matrix: batch-based integration.
  Time summed over all CPUs for integration: real work        0.017 s, elapsed        0.017 s

  Updating Kohn-Sham eigenvalues and eigenvectors using ELSI and the (modified) LAPACK eigensolver.
  Starting LAPACK eigensolver
  Finished Cholesky decomposition
  | Time :     0.000 s
  Finished transformation to standard eigenproblem
  | Time :     0.000 s
  Finished solving standard eigenproblem
  | Time :     0.000 s
  Finished back-transformation of eigenvectors
  | Time :     0.000 s

  Obtaining occupation numbers and chemical potential using ELSI.
  | Chemical potential (Fermi level):    -6.09796391 eV
  Highest occupied state (VBM) at     -6.09796391 eV
  | Occupation number:      1.00000000

  Lowest unoccupied state (CBM) at    -6.09796391 eV
  | Occupation number:      1.00000000

  Overall HOMO-LUMO gap:      0.00000000 eV.
  This system has fractional occupation numbers. Thus, it is a degenerate system
  within the approximate finite broadening function (occupation_type)
  applied to determine the occupation numbers.
  This may not be harmful. However, for some systems (free atoms), a different, non-degenerate
  ground state might exist by using a smaller broadening (see keyword occupation_type).

  Total energy components:
  | Sum of eigenvalues            :         -82.75397412 Ha       -2251.85020856 eV
  | XC energy correction          :         -16.82330125 Ha        -457.78531896 eV
  | XC potential correction       :          21.62531390 Ha         588.45473144 eV
  | Free-atom electrostatic energy:         -72.09217047 Ha       -1961.72776997 eV
  | Hartree energy correction     :          -0.33668254 Ha          -9.16159807 eV
  | Entropy correction            :          -0.00103668 Ha          -0.02820948 eV
  | ---------------------------
  | Total energy                  :        -150.38081448 Ha       -4092.07016411 eV
  | Total energy, T -> 0          :        -150.38185115 Ha       -4092.09837359 eV  <-- do not rely on this value for anything but (periodic) metals
  | Electronic free energy        :        -150.38288783 Ha       -4092.12658307 eV

  Derived energy quantities:
  | Kinetic energy                :         150.13140729 Ha        4085.28344926 eV
  | Electrostatic energy          :        -283.68892051 Ha       -7719.56829441 eV
  | Energy correction for multipole
  | error in Hartree potential    :           0.00683308 Ha           0.18593748 eV
  | Sum of eigenvalues per atom                           :       -1125.92510428 eV
  | Total energy (T->0) per atom                          :       -2046.04918679 eV  <-- do not rely on this value for anything but (periodic) metals
  | Electronic free energy per atom                       :       -2046.06329153 eV
  Evaluating new KS density.
  Integration grid: deviation in total charge (<rho> - N_e) =   9.237056E-14

  Self-consistency convergence accuracy:
  | Change of charge density      :  0.6228E-02
  | Change of sum of eigenvalues  :  0.1060E+01 eV
  | Change of total energy        :  0.3395E-03 eV


------------------------------------------------------------
  End self-consistency iteration #     5       :  max(cpu_time)    wall_clock(cpu1)
  | Time for this iteration                     :        0.037 s           0.036 s
  | Charge density update                       :        0.011 s           0.011 s
  | Density mixing                              :        0.002 s           0.002 s
  | Hartree multipole update                    :        0.001 s           0.001 s
  | Hartree multipole summation                 :        0.005 s           0.005 s
  | Integration                                 :        0.017 s           0.017 s
  | Solution of K.-S. eqns.                     :        0.000 s           0.000 s
  | Total energy evaluation                     :        0.000 s           0.000 s

  Partial memory accounting:
  | Current value for overall tracked memory usage:
  |   Minimum:        0.011 MB (on task 0)
  |   Maximum:        0.011 MB (on task 0)
  |   Average:        0.011 MB
  | Peak value for overall tracked memory usage:
  |   Minimum:        0.444 MB (on task 0 after allocating grid_partition)
  |   Maximum:        0.444 MB (on task 0 after allocating grid_partition)
  |   Average:        0.444 MB
  | Largest tracked array allocation so far:
  |   Minimum:        0.295 MB (all_coords on task 0)
  |   Maximum:        0.295 MB (all_coords on task 0)
  |   Average:        0.295 MB
  Note:  These values currently only include a subset of arrays which are explicitly tracked.
  The "true" memory usage will be greater.
------------------------------------------------------------

------------------------------------------------------------
          Begin self-consistency iteration #    6

  Date     :  20230629, Time     :  142546.476
------------------------------------------------------------
  Pulay mixing of updated and previous charge densities.
  Renormalizing the density to the exact electron count on the 3D integration grid.
  | Formal number of electrons (from input files) :      16.0000000000
  | Integrated number of electrons on 3D grid     :      16.0000000000
  | Charge integration error                      :       0.0000000000
  | Normalization factor for density and gradient :       1.0000000000

  Evaluating partitioned Hartree potential by multipole expansion.
  | Original multipole sum: apparent total charge =   0.375829E-13
  | Sum of charges compensated after spline to logarithmic grids =   0.179586E-04
  | Analytical far-field extrapolation by fixed multipoles:
  | Hartree multipole sum: apparent total charge =   0.376865E-13
  Summing up the Hartree potential.
  Time summed over all CPUs for potential: real work        0.004 s, elapsed        0.004 s
  | RMS charge density error from multipole expansion :   0.483048E-02

  Integrating Hamiltonian matrix: batch-based integration.
  Time summed over all CPUs for integration: real work        0.017 s, elapsed        0.017 s

  Updating Kohn-Sham eigenvalues and eigenvectors using ELSI and the (modified) LAPACK eigensolver.
  Starting LAPACK eigensolver
  Finished Cholesky decomposition
  | Time :     0.000 s
  Finished transformation to standard eigenproblem
  | Time :     0.000 s
  Finished solving standard eigenproblem
  | Time :     0.000 s
  Finished back-transformation of eigenvectors
  | Time :     0.000 s

  Obtaining occupation numbers and chemical potential using ELSI.
  | Chemical potential (Fermi level):    -6.09574138 eV
  Highest occupied state (VBM) at     -6.09574138 eV
  | Occupation number:      1.00000000

  Lowest unoccupied state (CBM) at    -6.09574138 eV
  | Occupation number:      1.00000000

  Overall HOMO-LUMO gap:      0.00000000 eV.
  This system has fractional occupation numbers. Thus, it is a degenerate system
  within the approximate finite broadening function (occupation_type)
  applied to determine the occupation numbers.
  This may not be harmful. However, for some systems (free atoms), a different, non-degenerate
  ground state might exist by using a smaller broadening (see keyword occupation_type).

  Total energy components:
  | Sum of eigenvalues            :         -82.75224288 Ha       -2251.80309930 eV
  | XC energy correction          :         -16.82354697 Ha        -457.79200520 eV
  | XC potential correction       :          21.62563477 Ha         588.46346277 eV
  | Free-atom electrostatic energy:         -72.09217047 Ha       -1961.72776997 eV
  | Hartree energy correction     :          -0.33848918 Ha          -9.21075911 eV
  | Entropy correction            :          -0.00103668 Ha          -0.02820948 eV
  | ---------------------------
  | Total energy                  :        -150.38081472 Ha       -4092.07017081 eV
  | Total energy, T -> 0          :        -150.38185140 Ha       -4092.09838028 eV  <-- do not rely on this value for anything but (periodic) metals
  | Electronic free energy        :        -150.38288808 Ha       -4092.12658976 eV

  Derived energy quantities:
  | Kinetic energy                :         150.13341362 Ha        4085.33804435 eV
  | Electrostatic energy          :        -283.69068137 Ha       -7719.61620996 eV
  | Energy correction for multipole
  | error in Hartree potential    :           0.00683122 Ha           0.18588698 eV
  | Sum of eigenvalues per atom                           :       -1125.90154965 eV
  | Total energy (T->0) per atom                          :       -2046.04919014 eV  <-- do not rely on this value for anything but (periodic) metals
  | Electronic free energy per atom                       :       -2046.06329488 eV
  Evaluating new KS density.
  Integration grid: deviation in total charge (<rho> - N_e) =  -5.684342E-14

  Self-consistency convergence accuracy:
  | Change of charge density      :  0.5808E-03
  | Change of sum of eigenvalues  :  0.4711E-01 eV
  | Change of total energy        : -0.6696E-05 eV


------------------------------------------------------------
  End self-consistency iteration #     6       :  max(cpu_time)    wall_clock(cpu1)
  | Time for this iteration                     :        0.036 s           0.036 s
  | Charge density update                       :        0.011 s           0.011 s
  | Density mixing                              :        0.002 s           0.002 s
  | Hartree multipole update                    :        0.001 s           0.001 s
  | Hartree multipole summation                 :        0.005 s           0.005 s
  | Integration                                 :        0.017 s           0.017 s
  | Solution of K.-S. eqns.                     :        0.000 s           0.000 s
  | Total energy evaluation                     :        0.000 s           0.000 s

  Partial memory accounting:
  | Current value for overall tracked memory usage:
  |   Minimum:        0.011 MB (on task 0)
  |   Maximum:        0.011 MB (on task 0)
  |   Average:        0.011 MB
  | Peak value for overall tracked memory usage:
  |   Minimum:        0.444 MB (on task 0 after allocating grid_partition)
  |   Maximum:        0.444 MB (on task 0 after allocating grid_partition)
  |   Average:        0.444 MB
  | Largest tracked array allocation so far:
  |   Minimum:        0.295 MB (all_coords on task 0)
  |   Maximum:        0.295 MB (all_coords on task 0)
  |   Average:        0.295 MB
  Note:  These values currently only include a subset of arrays which are explicitly tracked.
  The "true" memory usage will be greater.
------------------------------------------------------------

------------------------------------------------------------
          Begin self-consistency iteration #    7

  Date     :  20230629, Time     :  142546.512
------------------------------------------------------------
  Pulay mixing of updated and previous charge densities.
  Renormalizing the density to the exact electron count on the 3D integration grid.
  | Formal number of electrons (from input files) :      16.0000000000
  | Integrated number of electrons on 3D grid     :      16.0000000000
  | Charge integration error                      :       0.0000000000
  | Normalization factor for density and gradient :       1.0000000000

  Evaluating partitioned Hartree potential by multipole expansion.
  | Original multipole sum: apparent total charge =  -0.595105E-16
  | Sum of charges compensated after spline to logarithmic grids =   0.177044E-04
  | Analytical far-field extrapolation by fixed multipoles:
  | Hartree multipole sum: apparent total charge =  -0.677508E-16
  Summing up the Hartree potential.
  Time summed over all CPUs for potential: real work        0.004 s, elapsed        0.004 s
  | RMS charge density error from multipole expansion :   0.486378E-02

  Integrating Hamiltonian matrix: batch-based integration.
  Time summed over all CPUs for integration: real work        0.017 s, elapsed        0.017 s

  Updating Kohn-Sham eigenvalues and eigenvectors using ELSI and the (modified) LAPACK eigensolver.
  Starting LAPACK eigensolver
  Finished Cholesky decomposition
  | Time :     0.000 s
  Finished transformation to standard eigenproblem
  | Time :     0.000 s
  Finished solving standard eigenproblem
  | Time :     0.001 s
  Finished back-transformation of eigenvectors
  | Time :     0.000 s

  Obtaining occupation numbers and chemical potential using ELSI.
  | Chemical potential (Fermi level):    -6.09565801 eV
  Highest occupied state (VBM) at     -6.09565801 eV
  | Occupation number:      1.00000001

  Lowest unoccupied state (CBM) at    -6.09565801 eV
  | Occupation number:      0.99999999

  Overall HOMO-LUMO gap:      0.00000000 eV.
  This system has fractional occupation numbers. Thus, it is a degenerate system
  within the approximate finite broadening function (occupation_type)
  applied to determine the occupation numbers.
  This may not be harmful. However, for some systems (free atoms), a different, non-degenerate
  ground state might exist by using a smaller broadening (see keyword occupation_type).

  Total energy components:
  | Sum of eigenvalues            :         -82.75231733 Ha       -2251.80512523 eV
  | XC energy correction          :         -16.82352753 Ha        -457.79147616 eV
  | XC potential correction       :          21.62561004 Ha         588.46278975 eV
  | Free-atom electrostatic energy:         -72.09217047 Ha       -1961.72776997 eV
  | Hartree energy correction     :          -0.33840943 Ha          -9.20858913 eV
  | Entropy correction            :          -0.00103668 Ha          -0.02820948 eV
  | ---------------------------
  | Total energy                  :        -150.38081472 Ha       -4092.07017074 eV
  | Total energy, T -> 0          :        -150.38185140 Ha       -4092.09838021 eV  <-- do not rely on this value for anything but (periodic) metals
  | Electronic free energy        :        -150.38288808 Ha       -4092.12658969 eV

  Derived energy quantities:
  | Kinetic energy                :         150.13125002 Ha        4085.27916966 eV
  | Electrostatic energy          :        -283.68853721 Ha       -7719.55786423 eV
  | Energy correction for multipole
  | error in Hartree potential    :           0.00687890 Ha           0.18718429 eV
  | Sum of eigenvalues per atom                           :       -1125.90256261 eV
  | Total energy (T->0) per atom                          :       -2046.04919011 eV  <-- do not rely on this value for anything but (periodic) metals
  | Electronic free energy per atom                       :       -2046.06329485 eV
  Evaluating new KS density.
  Integration grid: deviation in total charge (<rho> - N_e) =  -4.440892E-14

  Self-consistency convergence accuracy:
  | Change of charge density      :  0.5427E-03
  | Change of sum of eigenvalues  : -0.2026E-02 eV
  | Change of total energy        :  0.7001E-07 eV


------------------------------------------------------------
  End self-consistency iteration #     7       :  max(cpu_time)    wall_clock(cpu1)
  | Time for this iteration                     :        0.036 s           0.036 s
  | Charge density update                       :        0.011 s           0.010 s
  | Density mixing                              :        0.002 s           0.002 s
  | Hartree multipole update                    :        0.001 s           0.002 s
  | Hartree multipole summation                 :        0.005 s           0.004 s
  | Integration                                 :        0.017 s           0.017 s
  | Solution of K.-S. eqns.                     :        0.000 s           0.001 s
  | Total energy evaluation                     :        0.000 s           0.000 s

  Partial memory accounting:
  | Current value for overall tracked memory usage:
  |   Minimum:        0.011 MB (on task 0)
  |   Maximum:        0.011 MB (on task 0)
  |   Average:        0.011 MB
  | Peak value for overall tracked memory usage:
  |   Minimum:        0.444 MB (on task 0 after allocating grid_partition)
  |   Maximum:        0.444 MB (on task 0 after allocating grid_partition)
  |   Average:        0.444 MB
  | Largest tracked array allocation so far:
  |   Minimum:        0.295 MB (all_coords on task 0)
  |   Maximum:        0.295 MB (all_coords on task 0)
  |   Average:        0.295 MB
  Note:  These values currently only include a subset of arrays which are explicitly tracked.
  The "true" memory usage will be greater.
------------------------------------------------------------

------------------------------------------------------------
          Begin self-consistency iteration #    8

  Date     :  20230629, Time     :  142546.548
------------------------------------------------------------
  Pulay mixing of updated and previous charge densities.
  Renormalizing the density to the exact electron count on the 3D integration grid.
  | Formal number of electrons (from input files) :      16.0000000000
  | Integrated number of electrons on 3D grid     :      16.0000000000
  | Charge integration error                      :       0.0000000000
  | Normalization factor for density and gradient :       1.0000000000

  Evaluating partitioned Hartree potential by multipole expansion.
  | Original multipole sum: apparent total charge =   0.786311E-13
  | Sum of charges compensated after spline to logarithmic grids =   0.177061E-04
  | Analytical far-field extrapolation by fixed multipoles:
  | Hartree multipole sum: apparent total charge =   0.786553E-13
  Summing up the Hartree potential.
  Time summed over all CPUs for potential: real work        0.005 s, elapsed        0.005 s
  | RMS charge density error from multipole expansion :   0.486385E-02

  Integrating Hamiltonian matrix: batch-based integration.
  Time summed over all CPUs for integration: real work        0.017 s, elapsed        0.017 s

  Updating Kohn-Sham eigenvalues and eigenvectors using ELSI and the (modified) LAPACK eigensolver.
  Starting LAPACK eigensolver
  Finished Cholesky decomposition
  | Time :     0.000 s
  Finished transformation to standard eigenproblem
  | Time :     0.000 s
  Finished solving standard eigenproblem
  | Time :     0.000 s
  Finished back-transformation of eigenvectors
  | Time :     0.000 s

  Obtaining occupation numbers and chemical potential using ELSI.
  | Chemical potential (Fermi level):    -6.09559734 eV
  Highest occupied state (VBM) at     -6.09559734 eV
  | Occupation number:      1.00000001

  Lowest unoccupied state (CBM) at    -6.09559734 eV
  | Occupation number:      0.99999999

  Overall HOMO-LUMO gap:      0.00000000 eV.
  This system has fractional occupation numbers. Thus, it is a degenerate system
  within the approximate finite broadening function (occupation_type)
  applied to determine the occupation numbers.
  This may not be harmful. However, for some systems (free atoms), a different, non-degenerate
  ground state might exist by using a smaller broadening (see keyword occupation_type).

  Total energy components:
  | Sum of eigenvalues            :         -82.75227342 Ha       -2251.80393028 eV
  | XC energy correction          :         -16.82353278 Ha        -457.79161913 eV
  | XC potential correction       :          21.62561691 Ha         588.46297678 eV
  | Free-atom electrostatic energy:         -72.09217047 Ha       -1961.72776997 eV
  | Hartree energy correction     :          -0.33845497 Ha          -9.20982822 eV
  | Entropy correction            :          -0.00103668 Ha          -0.02820948 eV
  | ---------------------------
  | Total energy                  :        -150.38081472 Ha       -4092.07017082 eV
  | Total energy, T -> 0          :        -150.38185140 Ha       -4092.09838030 eV  <-- do not rely on this value for anything but (periodic) metals
  | Electronic free energy        :        -150.38288808 Ha       -4092.12658978 eV

  Derived energy quantities:
  | Kinetic energy                :         150.13128232 Ha        4085.28004872 eV
  | Electrostatic energy          :        -283.68856426 Ha       -7719.55860041 eV
  | Energy correction for multipole
  | error in Hartree potential    :           0.00687900 Ha           0.18718718 eV
  | Sum of eigenvalues per atom                           :       -1125.90196514 eV
  | Total energy (T->0) per atom                          :       -2046.04919015 eV  <-- do not rely on this value for anything but (periodic) metals
  | Electronic free energy per atom                       :       -2046.06329489 eV
  Evaluating new KS density.
  Integration grid: deviation in total charge (<rho> - N_e) =   3.552714E-14

  Self-consistency convergence accuracy:
  | Change of charge density      :  0.4457E-05
  | Change of sum of eigenvalues  :  0.1195E-02 eV
  | Change of total energy        : -0.8595E-07 eV


------------------------------------------------------------
  End self-consistency iteration #     8       :  max(cpu_time)    wall_clock(cpu1)
  | Time for this iteration                     :        0.038 s           0.038 s
  | Charge density update                       :        0.011 s           0.011 s
  | Density mixing                              :        0.003 s           0.003 s
  | Hartree multipole update                    :        0.001 s           0.001 s
  | Hartree multipole summation                 :        0.005 s           0.005 s
  | Integration                                 :        0.017 s           0.017 s
  | Solution of K.-S. eqns.                     :        0.000 s           0.000 s
  | Total energy evaluation                     :        0.000 s           0.000 s

  Partial memory accounting:
  | Current value for overall tracked memory usage:
  |   Minimum:        0.011 MB (on task 0)
  |   Maximum:        0.011 MB (on task 0)
  |   Average:        0.011 MB
  | Peak value for overall tracked memory usage:
  |   Minimum:        0.444 MB (on task 0 after allocating grid_partition)
  |   Maximum:        0.444 MB (on task 0 after allocating grid_partition)
[...]
  | Time for this iteration                     :        0.035 s           0.035 s
  | Charge density & force component update     :        0.011 s           0.010 s
  | Density mixing                              :        0.002 s           0.001 s
  | Hartree multipole update                    :        0.001 s           0.002 s
  | Hartree multipole summation                 :        0.005 s           0.004 s
  | Hartree pot. SCF incomplete forces          :        0.009 s           0.009 s
  | Integration                                 :        0.017 s           0.017 s
  | Solution of K.-S. eqns.                     :        0.000 s           0.000 s
  | Total energy evaluation                     :        0.000 s           0.001 s

  Partial memory accounting:
  | Current value for overall tracked memory usage:
  |   Minimum:        0.014 MB (on task 0)
  |   Maximum:        0.014 MB (on task 0)
  |   Average:        0.014 MB
  | Peak value for overall tracked memory usage:
  |   Minimum:        0.457 MB (on task 0 after allocating grid_partition)
  |   Maximum:        0.457 MB (on task 0 after allocating grid_partition)
  |   Average:        0.457 MB
  | Largest tracked array allocation so far:
  |   Minimum:        0.295 MB (all_coords on task 0)
  |   Maximum:        0.295 MB (all_coords on task 0)
  |   Average:        0.295 MB
  Note:  These values currently only include a subset of arrays which are explicitly tracked.
  The "true" memory usage will be greater.
------------------------------------------------------------

------------------------------------------------------------
          Begin self-consistency iteration #    6

  Date     :  20230629, Time     :  142547.920
------------------------------------------------------------
  Pulay mixing of updated and previous charge densities.
  Renormalizing the density to the exact electron count on the 3D integration grid.
  | Formal number of electrons (from input files) :      16.0000000000
  | Integrated number of electrons on 3D grid     :      16.0000000000
  | Charge integration error                      :      -0.0000000000
  | Normalization factor for density and gradient :       1.0000000000

  Evaluating partitioned Hartree potential by multipole expansion.
  | Original multipole sum: apparent total charge =   0.136523E-12
  | Sum of charges compensated after spline to logarithmic grids =   0.165628E-04
  | Analytical far-field extrapolation by fixed multipoles:
  | Hartree multipole sum: apparent total charge =   0.136526E-12
  Summing up the Hartree potential.
  Time summed over all CPUs for potential: real work        0.013 s, elapsed        0.013 s
  | RMS charge density error from multipole expansion :   0.511374E-02

  Integrating Hamiltonian matrix: batch-based integration.
  Time summed over all CPUs for integration: real work        0.017 s, elapsed        0.017 s

  Updating Kohn-Sham eigenvalues and eigenvectors using ELSI and the (modified) LAPACK eigensolver.
  Starting LAPACK eigensolver
  Finished Cholesky decomposition
  | Time :     0.000 s
  Finished transformation to standard eigenproblem
  | Time :     0.000 s
  Finished solving standard eigenproblem
  | Time :     0.000 s
  Finished back-transformation of eigenvectors
  | Time :     0.000 s

  Obtaining occupation numbers and chemical potential using ELSI.
  | Chemical potential (Fermi level):    -5.95411533 eV
  Highest occupied state (VBM) at     -5.95411537 eV
  | Occupation number:      1.00000074

  Lowest unoccupied state (CBM) at    -5.95411530 eV
  | Occupation number:      0.99999926

  Overall HOMO-LUMO gap:      0.00000007 eV.
  This system has fractional occupation numbers. Thus, it is a degenerate system
  within the approximate finite broadening function (occupation_type)
  applied to determine the occupation numbers.
  This may not be harmful. However, for some systems (free atoms), a different, non-degenerate
  ground state might exist by using a smaller broadening (see keyword occupation_type).

  Total energy components:
  | Sum of eigenvalues            :         -82.77958587 Ha       -2252.54713991 eV
  | XC energy correction          :         -16.83811170 Ha        -458.18833171 eV
  | XC potential correction       :          21.64521410 Ha         588.99624345 eV
  | Free-atom electrostatic energy:         -72.03128785 Ha       -1960.07106976 eV
  | Hartree energy correction     :          -0.37745977 Ha         -10.27120298 eV
  | Entropy correction            :          -0.00103668 Ha          -0.02820948 eV
  | ---------------------------
  | Total energy                  :        -150.38123109 Ha       -4092.08150091 eV
  | Total energy, T -> 0          :        -150.38226777 Ha       -4092.10971039 eV  <-- do not rely on this value for anything but (periodic) metals
  | Electronic free energy        :        -150.38330445 Ha       -4092.13791987 eV

  Derived energy quantities:
  | Kinetic energy                :         150.17723768 Ha        4086.53055778 eV
  | Electrostatic energy          :        -283.72035708 Ha       -7720.42372697 eV
  | Energy correction for multipole
  | error in Hartree potential    :           0.00751738 Ha           0.20455832 eV
  | Sum of eigenvalues per atom                           :       -1126.27356995 eV
  | Total energy (T->0) per atom                          :       -2046.05485519 eV  <-- do not rely on this value for anything but (periodic) metals
  | Electronic free energy per atom                       :       -2046.06895993 eV
  Evaluating new KS density and force components.
  Integration grid: deviation in total charge (<rho> - N_e) =   2.842171E-14

  atomic forces [eV/Ang]:
  -----------------------
  atom #    1
   Hellmann-Feynman              : -0.479031E-12 -0.880801E-13  0.197604E+02
   Ionic forces                  :  0.000000E+00  0.000000E+00  0.000000E+00
   Multipole                     : -0.238241E-13 -0.222700E-12  0.408589E+00
   Hartree pot. SCF incomplete   :  0.431122E-12 -0.531587E-13  0.635450E-04
   Pulay + GGA                   :  0.189880E-11 -0.401174E-11 -0.201696E+02
   ----------------------------------------------------------------
   Total forces(   1)            :  0.182707E-11 -0.437568E-11 -0.543510E-03
  atom #    2
   Hellmann-Feynman              : -0.454388E-12 -0.566877E-13 -0.197604E+02
   Ionic forces                  :  0.000000E+00  0.000000E+00  0.000000E+00
   Multipole                     :  0.883041E-13 -0.108398E-12 -0.408589E+00
   Hartree pot. SCF incomplete   :  0.319242E-12  0.104992E-12 -0.651122E-04
   Pulay + GGA                   : -0.426453E-11 -0.261531E-11  0.201696E+02
   ----------------------------------------------------------------
   Total forces(   2)            : -0.431137E-11 -0.267540E-11  0.543584E-03


  Self-consistency convergence accuracy:
  | Change of charge density      :  0.1365E-05
  | Change of sum of eigenvalues  : -0.2572E-03 eV
  | Change of total energy        :  0.2945E-07 eV
  | Change of forces              :  0.2486E+01 eV/A

  Writing Kohn-Sham eigenvalues.

  State    Occupation    Eigenvalue [Ha]    Eigenvalue [eV]
      1       2.00000         -18.926271         -515.01004
      2       2.00000         -18.926217         -515.00857
      3       2.00000          -1.180816          -32.13164
      4       2.00000          -0.731788          -19.91296
      5       2.00000          -0.482835          -13.13862
      6       2.00000          -0.461528          -12.55881
      7       2.00000          -0.461528          -12.55881
      8       1.00000          -0.218810           -5.95412
      9       1.00000          -0.218810           -5.95412
     10       0.00000           0.087405            2.37841
     11       0.00000           0.269106            7.32274
     12       0.00000           0.269106            7.32274
     13       0.00000           0.269996            7.34698
     14       0.00000           0.398594           10.84629

  Highest occupied state (VBM) at     -5.95411537 eV
  | Occupation number:      1.00000074

  Lowest unoccupied state (CBM) at    -5.95411530 eV
  | Occupation number:      0.99999926

  Overall HOMO-LUMO gap:      0.00000007 eV.
  This system has fractional occupation numbers. Thus, it is a degenerate system
  within the approximate finite broadening function (occupation_type)
  applied to determine the occupation numbers.
  This may not be harmful. However, for some systems (free atoms), a different, non-degenerate
  ground state might exist by using a smaller broadening (see keyword occupation_type).
  | Chemical Potential                          :    -5.95411533 eV

  Self-consistency cycle converged.


------------------------------------------------------------
  End self-consistency iteration #     6       :  max(cpu_time)    wall_clock(cpu1)
  | Time for this iteration                     :        0.086 s           0.087 s
  | Charge density & force component update     :        0.044 s           0.044 s
  | Density mixing                              :        0.002 s           0.002 s
  | Hartree multipole update                    :        0.001 s           0.001 s
  | Hartree multipole summation                 :        0.013 s           0.014 s
  | Hartree pot. SCF incomplete forces          :        0.009 s           0.009 s
  | Integration                                 :        0.017 s           0.016 s
  | Solution of K.-S. eqns.                     :        0.000 s           0.001 s
  | Total energy evaluation                     :        0.000 s           0.000 s

  Partial memory accounting:
  | Current value for overall tracked memory usage:
  |   Minimum:        0.014 MB (on task 0)
  |   Maximum:        0.014 MB (on task 0)
  |   Average:        0.014 MB
  | Peak value for overall tracked memory usage:
  |   Minimum:        0.457 MB (on task 0 after allocating grid_partition)
  |   Maximum:        0.457 MB (on task 0 after allocating grid_partition)
  |   Average:        0.457 MB
  | Largest tracked array allocation so far:
  |   Minimum:        0.295 MB (all_coords on task 0)
  |   Maximum:        0.295 MB (all_coords on task 0)
  |   Average:        0.295 MB
  Note:  These values currently only include a subset of arrays which are explicitly tracked.
  The "true" memory usage will be greater.
------------------------------------------------------------
  Removing unitary transformations (pure translations, rotations) from forces on atoms.
  Atomic forces before filtering:
  | Net force on center of mass :  -0.248430E-11 -0.705108E-11  0.746080E-07 eV/A
  | Net torque on center of mass:   0.104369E-11  0.376799E-11  0.172493E-45 eV
  Atomic forces after filtering:
  | Net force on center of mass :  -0.649038E-27 -0.649038E-27 -0.871124E-19 eV/A
  | Net torque on center of mass:   0.199201E-27 -0.398403E-27  0.329223E-61 eV

  Energy and forces in a compact form:
  | Total energy uncorrected      :         -0.409208150090721E+04 eV
  | Total energy corrected        :         -0.409210971038681E+04 eV  <-- do not rely on this value for anything but (periodic) metals
  | Electronic free energy        :         -0.409213791986640E+04 eV
  Total atomic forces (unitary forces cleaned) [eV/Ang]:
  |    1         -0.649037698626122E-27         -0.486778273969592E-27         -0.543546839618522E-03
  |    2          0.000000000000000E+00         -0.162259424656531E-27          0.543546839618522E-03

  ------------------------------------
  Start decomposition of the XC Energy
  ------------------------------------
  X and C from original XC functional choice
  Hartree-Fock Energy :          0.000000000 Ha              0.000000000 eV
  X Energy            :        -16.304984057 Ha           -443.681190455 eV
  C Energy            :         -0.533127642 Ha            -14.507141254 eV
  XC Energy w/o HF    :        -16.838111700 Ha           -458.188331709 eV
  Total XC Energy     :        -16.838111700 Ha           -458.188331709 eV
  ------------------------------------
  LDA X and C from self-consistent density
  X Energy LDA        :        -14.800222633 Ha           -402.734548742 eV
  C Energy LDA        :         -1.111991640 Ha            -30.258832069 eV
  ------------------------------------
  End decomposition of the XC Energy
  ------------------------------------

------------------------------------------------------------
  Relaxation / MD: End force evaluation.       :  max(cpu_time)    wall_clock(cpu1)
  | Time for this force evaluation              :        0.304 s           0.304 s

------------------------------------------------------------
  Geometry optimization: Attempting to predict improved coordinates.

  Removing unitary transformations (pure translations, rotations) from forces on atoms.
  Atomic forces before filtering:
  | Net force on center of mass :  -0.649038E-27 -0.649038E-27 -0.871124E-19 eV/A
  | Net torque on center of mass:   0.199201E-27 -0.398403E-27  0.329223E-61 eV
  Atomic forces after filtering:
  | Net force on center of mass :  -0.144115E-42 -0.360288E-43 -0.871124E-19 eV/A
  | Net torque on center of mass:   0.221158E-43  0.742797E-43  0.365511E-77 eV
  Net remaining forces (excluding translations, rotations) in present geometry:
  || Forces on atoms   || =   0.543547E-03 eV/A.
  Maximum force component is  0.543547E-03 eV/A.
  Present geometry is converged.

------------------------------------------------------------
  Final atomic structure:
                         x [A]             y [A]             z [A]
            atom        -0.00000000       -0.00000000        0.61383570  O
            atom        -0.00000000       -0.00000000       -0.61383570  O
------------------------------------------------------------

------------------------------------------------------------------------------
  Final output of selected total energy values:

  The following output summarizes some interesting total energy values
  at the end of a run (AFTER all relaxation, molecular dynamics, etc.).

  | Total energy of the DFT / Hartree-Fock s.c.f. calculation      :          -4092.081500907 eV
  | Final zero-broadening corrected energy (caution - metals only) :          -4092.109710387 eV
  | For reference only, the value of 1 Hartree used in FHI-aims is :             27.211384500 eV

  Before relying on these values, please be sure to understand exactly which
  total energy value is referred to by a given number. Different objects may
  all carry the same name 'total energy'. Definitions:

  Total energy of the DFT / Hartree-Fock s.c.f. calculation:
  | Note that this energy does not include ANY quantities calculated after the
  | s.c.f. cycle, in particular not ANY RPA, MP2, etc. many-body perturbation terms.

  Final zero-broadening corrected energy:
  | For metallic systems only, a broadening of the occupation numbers at the Fermi
  | level can be extrapolated back to zero broadening by an electron-gas inspired
  | formula. For all systems that are not real metals, this value can be
  | meaningless and should be avoided.

------------------------------------------------------------------------------
  Methods described in the following list of references were used in this FHI-aims run.
  If you publish the results, please make sure to cite these reference if they apply.
  FHI-aims is an academic code, and for our developers (often, Ph.D. students
  and postdocs), scientific credit in the community is essential.
  Thank you for helping us!

  For any use of FHI-aims, please cite:

    Volker Blum, Ralf Gehrke, Felix Hanke, Paula Havu, Ville Havu,
    Xinguo Ren, Karsten Reuter, and Matthias Scheffler
    'Ab initio molecular simulations with numeric atom-centered orbitals'
    Computer Physics Communications 180, 2175-2196 (2009)
    http://doi.org/10.1016/j.cpc.2009.06.022


  The ELSI infrastructure was used in your run to solve the Kohn-Sham electronic structure.
  Please check out http://elsi-interchange.org to learn more.
  If scalability is important for your project, please acknowledge ELSI by citing:

    V. W-z. Yu, F. Corsetti, A. Garcia, W. P. Huhn, M. Jacquelin, W. Jia,
    B. Lange, L. Lin, J. Lu, W. Mi, A. Seifitokaldani, A. Vazquez-Mayagoitia,
    C. Yang, H. Yang, and V. Blum
    'ELSI: A unified software interface for Kohn-Sham electronic structure solvers'
    Computer Physics Communications 222, 267-285 (2018).
    http://doi.org/10.1016/j.cpc.2017.09.007


  For the real-space grid partitioning and parallelization used in this calculation, please cite:

    Ville Havu, Volker Blum, Paula Havu, and Matthias Scheffler,
    'Efficient O(N) integration for all-electron electronic structure calculation'
    'using numerically tabulated basis functions'
    Journal of Computational Physics 228, 8367-8379 (2009).
    http://doi.org/10.1016/j.jcp.2009.08.008

  Of course, there are many other important community references, e.g., those cited in the
  above references. Our list is limited to references that describe implementations in the
  FHI-aims code. The reason is purely practical (length of this list) - please credit others as well.

------------------------------------------------------------
          Leaving FHI-aims.
          Date     :  20230629, Time     :  142548.015

          Computational steps:
          | Number of self-consistency cycles          :           38
          | Number of SCF (re)initializations          :            4
          | Number of relaxation steps                 :            3

          Detailed time accounting                     :  max(cpu_time)    wall_clock(cpu1)
          | Total time                                  :        1.831 s           1.831 s
          | Preparation time                            :        0.049 s           0.049 s
          | Boundary condition initalization            :        0.000 s           0.000 s
          | Grid partitioning                           :        0.037 s           0.036 s
          | Preloading free-atom quantities on grid     :        0.021 s           0.022 s
          | Free-atom superposition energy              :        0.025 s           0.024 s
          | Total time for integrations                 :        0.679 s           0.679 s
          | Total time for solution of K.-S. equations  :        0.010 s           0.012 s
          | Total time for EV reorthonormalization      :        0.000 s           0.000 s
          | Total time for density & force components   :        0.589 s           0.586 s
          | Total time for mixing                       :        0.067 s           0.063 s
          | Total time for Hartree multipole update     :        0.049 s           0.053 s
          | Total time for Hartree multipole sum        :        0.218 s           0.220 s
          | Total time for total energy evaluation      :        0.002 s           0.001 s
          | Total time NSC force correction             :        0.035 s           0.035 s
          | Total time for scaled ZORA corrections      :        0.000 s           0.000 s

          Partial memory accounting:
          | Residual value for overall tracked memory usage across tasks:     0.000000 MB (should be 0.000000 MB)
          | Peak values for overall tracked memory usage:
          |   Minimum:        0.457 MB (on task 0 after allocating grid_partition)
          |   Maximum:        0.457 MB (on task 0 after allocating grid_partition)
          |   Average:        0.457 MB
          | Largest tracked array allocation:
          |   Minimum:        0.295 MB (all_coords on task 0)
          |   Maximum:        0.295 MB (all_coords on task 0)
          |   Average:        0.295 MB
          Note:  These values currently only include a subset of arrays which are explicitly tracked.
          The "true" memory usage will be greater.

          Have a nice day.
------------------------------------------------------------
